+ 0.504092 1 2 tcp 40 ------- 2 1.0 3.1 0 0
- 0.504092 1 2 tcp 40 ------- 2 1.0 3.1 0 0
r 0.514412 1 2 tcp 40 ------- 2 1.0 3.1 0 0
+ 0.514412 2 3 tcp 40 ------- 2 1.0 3.1 0 0
- 0.514412 2 3 tcp 40 ------- 2 1.0 3.1 0 0
r 0.524732 2 3 tcp 40 ------- 2 1.0 3.1 0 0
+ 0.524732 3 2 ack 40 ------- 2 3.1 1.0 0 1
- 0.524732 3 2 ack 40 ------- 2 3.1 1.0 0 1
r 0.535052 3 2 ack 40 ------- 2 3.1 1.0 0 1
+ 0.535052 2 1 ack 40 ------- 2 3.1 1.0 0 1
- 0.535052 2 1 ack 40 ------- 2 3.1 1.0 0 1
r 0.545372 2 1 ack 40 ------- 2 3.1 1.0 0 1
+ 0.545372 1 2 tcp 1040 ------- 2 1.0 3.1 1 2
- 0.545372 1 2 tcp 1040 ------- 2 1.0 3.1 1 2
+ 0.545372 1 2 tcp 1040 ------- 2 1.0 3.1 2 3
- 0.553692 1 2 tcp 1040 ------- 2 1.0 3.1 2 3
r 0.563692 1 2 tcp 1040 ------- 2 1.0 3.1 1 2
+ 0.563692 2 3 tcp 1040 ------- 2 1.0 3.1 1 2
- 0.563692 2 3 tcp 1040 ------- 2 1.0 3.1 1 2
r 0.572012 1 2 tcp 1040 ------- 2 1.0 3.1 2 3
+ 0.572012 2 3 tcp 1040 ------- 2 1.0 3.1 2 3
- 0.572012 2 3 tcp 1040 ------- 2 1.0 3.1 2 3
r 0.582012 2 3 tcp 1040 ------- 2 1.0 3.1 1 2
+ 0.582012 3 2 ack 40 ------- 2 3.1 1.0 1 4
- 0.582012 3 2 ack 40 ------- 2 3.1 1.0 1 4
r 0.590332 2 3 tcp 1040 ------- 2 1.0 3.1 2 3
+ 0.590332 3 2 ack 40 ------- 2 3.1 1.0 2 5
- 0.590332 3 2 ack 40 ------- 2 3.1 1.0 2 5
r 0.592332 3 2 ack 40 ------- 2 3.1 1.0 1 4
+ 0.592332 2 1 ack 40 ------- 2 3.1 1.0 1 4
- 0.592332 2 1 ack 40 ------- 2 3.1 1.0 1 4
r 0.600652 3 2 ack 40 ------- 2 3.1 1.0 2 5
+ 0.600652 2 1 ack 40 ------- 2 3.1 1.0 2 5
- 0.600652 2 1 ack 40 ------- 2 3.1 1.0 2 5
r 0.602652 2 1 ack 40 ------- 2 3.1 1.0 1 4
+ 0.602652 1 2 tcp 1040 ------- 2 1.0 3.1 3 6
- 0.602652 1 2 tcp 1040 ------- 2 1.0 3.1 3 6
+ 0.602652 1 2 tcp 1040 ------- 2 1.0 3.1 4 7
r 0.610972 2 1 ack 40 ------- 2 3.1 1.0 2 5
+ 0.610972 1 2 tcp 1040 ------- 2 1.0 3.1 5 8
+ 0.610972 1 2 tcp 1040 ------- 2 1.0 3.1 6 9
- 0.610972 1 2 tcp 1040 ------- 2 1.0 3.1 4 7
- 0.619292 1 2 tcp 1040 ------- 2 1.0 3.1 5 8
r 0.620972 1 2 tcp 1040 ------- 2 1.0 3.1 3 6
+ 0.620972 2 3 tcp 1040 ------- 2 1.0 3.1 3 6
- 0.620972 2 3 tcp 1040 ------- 2 1.0 3.1 3 6
- 0.627612 1 2 tcp 1040 ------- 2 1.0 3.1 6 9
r 0.629292 1 2 tcp 1040 ------- 2 1.0 3.1 4 7
+ 0.629292 2 3 tcp 1040 ------- 2 1.0 3.1 4 7
- 0.629292 2 3 tcp 1040 ------- 2 1.0 3.1 4 7
r 0.637612 1 2 tcp 1040 ------- 2 1.0 3.1 5 8
+ 0.637612 2 3 tcp 1040 ------- 2 1.0 3.1 5 8
- 0.637612 2 3 tcp 1040 ------- 2 1.0 3.1 5 8
r 0.639292 2 3 tcp 1040 ------- 2 1.0 3.1 3 6
+ 0.639292 3 2 ack 40 ------- 2 3.1 1.0 3 10
- 0.639292 3 2 ack 40 ------- 2 3.1 1.0 3 10
r 0.645932 1 2 tcp 1040 ------- 2 1.0 3.1 6 9
+ 0.645932 2 3 tcp 1040 ------- 2 1.0 3.1 6 9
- 0.645932 2 3 tcp 1040 ------- 2 1.0 3.1 6 9
r 0.647612 2 3 tcp 1040 ------- 2 1.0 3.1 4 7
+ 0.647612 3 2 ack 40 ------- 2 3.1 1.0 4 11
- 0.647612 3 2 ack 40 ------- 2 3.1 1.0 4 11
r 0.649612 3 2 ack 40 ------- 2 3.1 1.0 3 10
+ 0.649612 2 1 ack 40 ------- 2 3.1 1.0 3 10
- 0.649612 2 1 ack 40 ------- 2 3.1 1.0 3 10
r 0.655932 2 3 tcp 1040 ------- 2 1.0 3.1 5 8
+ 0.655932 3 2 ack 40 ------- 2 3.1 1.0 5 12
- 0.655932 3 2 ack 40 ------- 2 3.1 1.0 5 12
r 0.657932 3 2 ack 40 ------- 2 3.1 1.0 4 11
+ 0.657932 2 1 ack 40 ------- 2 3.1 1.0 4 11
- 0.657932 2 1 ack 40 ------- 2 3.1 1.0 4 11
r 0.659932 2 1 ack 40 ------- 2 3.1 1.0 3 10
+ 0.659932 1 2 tcp 1040 ------- 2 1.0 3.1 7 13
- 0.659932 1 2 tcp 1040 ------- 2 1.0 3.1 7 13
+ 0.659932 1 2 tcp 1040 ------- 2 1.0 3.1 8 14
r 0.664252 2 3 tcp 1040 ------- 2 1.0 3.1 6 9
+ 0.664252 3 2 ack 40 ------- 2 3.1 1.0 6 15
- 0.664252 3 2 ack 40 ------- 2 3.1 1.0 6 15
r 0.666252 3 2 ack 40 ------- 2 3.1 1.0 5 12
+ 0.666252 2 1 ack 40 ------- 2 3.1 1.0 5 12
- 0.666252 2 1 ack 40 ------- 2 3.1 1.0 5 12
r 0.668252 2 1 ack 40 ------- 2 3.1 1.0 4 11
+ 0.668252 1 2 tcp 1040 ------- 2 1.0 3.1 9 16
+ 0.668252 1 2 tcp 1040 ------- 2 1.0 3.1 10 17
- 0.668252 1 2 tcp 1040 ------- 2 1.0 3.1 8 14
r 0.674572 3 2 ack 40 ------- 2 3.1 1.0 6 15
+ 0.674572 2 1 ack 40 ------- 2 3.1 1.0 6 15
- 0.674572 2 1 ack 40 ------- 2 3.1 1.0 6 15
r 0.676572 2 1 ack 40 ------- 2 3.1 1.0 5 12
+ 0.676572 1 2 tcp 1040 ------- 2 1.0 3.1 11 18
+ 0.676572 1 2 tcp 1040 ------- 2 1.0 3.1 12 19
- 0.676572 1 2 tcp 1040 ------- 2 1.0 3.1 9 16
r 0.678252 1 2 tcp 1040 ------- 2 1.0 3.1 7 13
+ 0.678252 2 3 tcp 1040 ------- 2 1.0 3.1 7 13
- 0.678252 2 3 tcp 1040 ------- 2 1.0 3.1 7 13
r 0.684892 2 1 ack 40 ------- 2 3.1 1.0 6 15
+ 0.684892 1 2 tcp 1040 ------- 2 1.0 3.1 13 20
+ 0.684892 1 2 tcp 1040 ------- 2 1.0 3.1 14 21
- 0.684892 1 2 tcp 1040 ------- 2 1.0 3.1 10 17
r 0.686572 1 2 tcp 1040 ------- 2 1.0 3.1 8 14
+ 0.686572 2 3 tcp 1040 ------- 2 1.0 3.1 8 14
- 0.686572 2 3 tcp 1040 ------- 2 1.0 3.1 8 14
- 0.693212 1 2 tcp 1040 ------- 2 1.0 3.1 11 18
r 0.694892 1 2 tcp 1040 ------- 2 1.0 3.1 9 16
+ 0.694892 2 3 tcp 1040 ------- 2 1.0 3.1 9 16
- 0.694892 2 3 tcp 1040 ------- 2 1.0 3.1 9 16
r 0.696572 2 3 tcp 1040 ------- 2 1.0 3.1 7 13
+ 0.696572 3 2 ack 40 ------- 2 3.1 1.0 7 22
- 0.696572 3 2 ack 40 ------- 2 3.1 1.0 7 22
- 0.701532 1 2 tcp 1040 ------- 2 1.0 3.1 12 19
r 0.703212 1 2 tcp 1040 ------- 2 1.0 3.1 10 17
+ 0.703212 2 3 tcp 1040 ------- 2 1.0 3.1 10 17
- 0.703212 2 3 tcp 1040 ------- 2 1.0 3.1 10 17
r 0.704892 2 3 tcp 1040 ------- 2 1.0 3.1 8 14
+ 0.704892 3 2 ack 40 ------- 2 3.1 1.0 8 23
- 0.704892 3 2 ack 40 ------- 2 3.1 1.0 8 23
r 0.706892 3 2 ack 40 ------- 2 3.1 1.0 7 22
+ 0.706892 2 1 ack 40 ------- 2 3.1 1.0 7 22
- 0.706892 2 1 ack 40 ------- 2 3.1 1.0 7 22
- 0.709852 1 2 tcp 1040 ------- 2 1.0 3.1 13 20
r 0.711532 1 2 tcp 1040 ------- 2 1.0 3.1 11 18
+ 0.711532 2 3 tcp 1040 ------- 2 1.0 3.1 11 18
- 0.711532 2 3 tcp 1040 ------- 2 1.0 3.1 11 18
r 0.713212 2 3 tcp 1040 ------- 2 1.0 3.1 9 16
+ 0.713212 3 2 ack 40 ------- 2 3.1 1.0 9 24
- 0.713212 3 2 ack 40 ------- 2 3.1 1.0 9 24
r 0.715212 3 2 ack 40 ------- 2 3.1 1.0 8 23
+ 0.715212 2 1 ack 40 ------- 2 3.1 1.0 8 23
- 0.715212 2 1 ack 40 ------- 2 3.1 1.0 8 23
r 0.717212 2 1 ack 40 ------- 2 3.1 1.0 7 22
+ 0.717212 1 2 tcp 1040 ------- 2 1.0 3.1 15 25
+ 0.717212 1 2 tcp 1040 ------- 2 1.0 3.1 16 26
- 0.718172 1 2 tcp 1040 ------- 2 1.0 3.1 14 21
r 0.719852 1 2 tcp 1040 ------- 2 1.0 3.1 12 19
+ 0.719852 2 3 tcp 1040 ------- 2 1.0 3.1 12 19
- 0.719852 2 3 tcp 1040 ------- 2 1.0 3.1 12 19
r 0.721532 2 3 tcp 1040 ------- 2 1.0 3.1 10 17
+ 0.721532 3 2 ack 40 ------- 2 3.1 1.0 10 27
- 0.721532 3 2 ack 40 ------- 2 3.1 1.0 10 27
r 0.723532 3 2 ack 40 ------- 2 3.1 1.0 9 24
+ 0.723532 2 1 ack 40 ------- 2 3.1 1.0 9 24
- 0.723532 2 1 ack 40 ------- 2 3.1 1.0 9 24
r 0.725532 2 1 ack 40 ------- 2 3.1 1.0 8 23
+ 0.725532 1 2 tcp 1040 ------- 2 1.0 3.1 17 28
+ 0.725532 1 2 tcp 1040 ------- 2 1.0 3.1 18 29
- 0.726492 1 2 tcp 1040 ------- 2 1.0 3.1 15 25
r 0.728172 1 2 tcp 1040 ------- 2 1.0 3.1 13 20
+ 0.728172 2 3 tcp 1040 ------- 2 1.0 3.1 13 20
- 0.728172 2 3 tcp 1040 ------- 2 1.0 3.1 13 20
r 0.729852 2 3 tcp 1040 ------- 2 1.0 3.1 11 18
+ 0.729852 3 2 ack 40 ------- 2 3.1 1.0 11 30
- 0.729852 3 2 ack 40 ------- 2 3.1 1.0 11 30
r 0.731852 3 2 ack 40 ------- 2 3.1 1.0 10 27
+ 0.731852 2 1 ack 40 ------- 2 3.1 1.0 10 27
- 0.731852 2 1 ack 40 ------- 2 3.1 1.0 10 27
r 0.733852 2 1 ack 40 ------- 2 3.1 1.0 9 24
+ 0.733852 1 2 tcp 1040 ------- 2 1.0 3.1 19 31
+ 0.733852 1 2 tcp 1040 ------- 2 1.0 3.1 20 32
- 0.734812 1 2 tcp 1040 ------- 2 1.0 3.1 16 26
r 0.736492 1 2 tcp 1040 ------- 2 1.0 3.1 14 21
+ 0.736492 2 3 tcp 1040 ------- 2 1.0 3.1 14 21
- 0.736492 2 3 tcp 1040 ------- 2 1.0 3.1 14 21
r 0.738172 2 3 tcp 1040 ------- 2 1.0 3.1 12 19
+ 0.738172 3 2 ack 40 ------- 2 3.1 1.0 12 33
- 0.738172 3 2 ack 40 ------- 2 3.1 1.0 12 33
r 0.740172 3 2 ack 40 ------- 2 3.1 1.0 11 30
+ 0.740172 2 1 ack 40 ------- 2 3.1 1.0 11 30
- 0.740172 2 1 ack 40 ------- 2 3.1 1.0 11 30
r 0.742172 2 1 ack 40 ------- 2 3.1 1.0 10 27
+ 0.742172 1 2 tcp 1040 ------- 2 1.0 3.1 21 34
+ 0.742172 1 2 tcp 1040 ------- 2 1.0 3.1 22 35
- 0.743132 1 2 tcp 1040 ------- 2 1.0 3.1 17 28
r 0.744812 1 2 tcp 1040 ------- 2 1.0 3.1 15 25
+ 0.744812 2 3 tcp 1040 ------- 2 1.0 3.1 15 25
- 0.744812 2 3 tcp 1040 ------- 2 1.0 3.1 15 25
r 0.746492 2 3 tcp 1040 ------- 2 1.0 3.1 13 20
+ 0.746492 3 2 ack 40 ------- 2 3.1 1.0 13 36
- 0.746492 3 2 ack 40 ------- 2 3.1 1.0 13 36
r 0.748492 3 2 ack 40 ------- 2 3.1 1.0 12 33
+ 0.748492 2 1 ack 40 ------- 2 3.1 1.0 12 33
- 0.748492 2 1 ack 40 ------- 2 3.1 1.0 12 33
r 0.750492 2 1 ack 40 ------- 2 3.1 1.0 11 30
+ 0.750492 1 2 tcp 1040 ------- 2 1.0 3.1 23 37
+ 0.750492 1 2 tcp 1040 ------- 2 1.0 3.1 24 38
- 0.751452 1 2 tcp 1040 ------- 2 1.0 3.1 18 29
r 0.753132 1 2 tcp 1040 ------- 2 1.0 3.1 16 26
+ 0.753132 2 3 tcp 1040 ------- 2 1.0 3.1 16 26
- 0.753132 2 3 tcp 1040 ------- 2 1.0 3.1 16 26
r 0.754812 2 3 tcp 1040 ------- 2 1.0 3.1 14 21
+ 0.754812 3 2 ack 40 ------- 2 3.1 1.0 14 39
- 0.754812 3 2 ack 40 ------- 2 3.1 1.0 14 39
r 0.756812 3 2 ack 40 ------- 2 3.1 1.0 13 36
+ 0.756812 2 1 ack 40 ------- 2 3.1 1.0 13 36
- 0.756812 2 1 ack 40 ------- 2 3.1 1.0 13 36
r 0.758812 2 1 ack 40 ------- 2 3.1 1.0 12 33
+ 0.758812 1 2 tcp 1040 ------- 2 1.0 3.1 25 40
+ 0.758812 1 2 tcp 1040 ------- 2 1.0 3.1 26 41
- 0.759772 1 2 tcp 1040 ------- 2 1.0 3.1 19 31
r 0.761452 1 2 tcp 1040 ------- 2 1.0 3.1 17 28
+ 0.761452 2 3 tcp 1040 ------- 2 1.0 3.1 17 28
- 0.761452 2 3 tcp 1040 ------- 2 1.0 3.1 17 28
r 0.763132 2 3 tcp 1040 ------- 2 1.0 3.1 15 25
+ 0.763132 3 2 ack 40 ------- 2 3.1 1.0 15 42
- 0.763132 3 2 ack 40 ------- 2 3.1 1.0 15 42
r 0.765132 3 2 ack 40 ------- 2 3.1 1.0 14 39
+ 0.765132 2 1 ack 40 ------- 2 3.1 1.0 14 39
- 0.765132 2 1 ack 40 ------- 2 3.1 1.0 14 39
r 0.767132 2 1 ack 40 ------- 2 3.1 1.0 13 36
+ 0.767132 1 2 tcp 1040 ------- 2 1.0 3.1 27 43
+ 0.767132 1 2 tcp 1040 ------- 2 1.0 3.1 28 44
- 0.768092 1 2 tcp 1040 ------- 2 1.0 3.1 20 32
r 0.769772 1 2 tcp 1040 ------- 2 1.0 3.1 18 29
+ 0.769772 2 3 tcp 1040 ------- 2 1.0 3.1 18 29
- 0.769772 2 3 tcp 1040 ------- 2 1.0 3.1 18 29
r 0.771452 2 3 tcp 1040 ------- 2 1.0 3.1 16 26
+ 0.771452 3 2 ack 40 ------- 2 3.1 1.0 16 45
- 0.771452 3 2 ack 40 ------- 2 3.1 1.0 16 45
r 0.773452 3 2 ack 40 ------- 2 3.1 1.0 15 42
+ 0.773452 2 1 ack 40 ------- 2 3.1 1.0 15 42
- 0.773452 2 1 ack 40 ------- 2 3.1 1.0 15 42
r 0.775452 2 1 ack 40 ------- 2 3.1 1.0 14 39
+ 0.775452 1 2 tcp 1040 ------- 2 1.0 3.1 29 46
+ 0.775452 1 2 tcp 1040 ------- 2 1.0 3.1 30 47
- 0.776412 1 2 tcp 1040 ------- 2 1.0 3.1 21 34
r 0.778092 1 2 tcp 1040 ------- 2 1.0 3.1 19 31
+ 0.778092 2 3 tcp 1040 ------- 2 1.0 3.1 19 31
- 0.778092 2 3 tcp 1040 ------- 2 1.0 3.1 19 31
r 0.779772 2 3 tcp 1040 ------- 2 1.0 3.1 17 28
+ 0.779772 3 2 ack 40 ------- 2 3.1 1.0 17 48
- 0.779772 3 2 ack 40 ------- 2 3.1 1.0 17 48
r 0.781772 3 2 ack 40 ------- 2 3.1 1.0 16 45
+ 0.781772 2 1 ack 40 ------- 2 3.1 1.0 16 45
- 0.781772 2 1 ack 40 ------- 2 3.1 1.0 16 45
r 0.783772 2 1 ack 40 ------- 2 3.1 1.0 15 42
+ 0.783772 1 2 tcp 1040 ------- 2 1.0 3.1 31 49
+ 0.783772 1 2 tcp 1040 ------- 2 1.0 3.1 32 50
- 0.784732 1 2 tcp 1040 ------- 2 1.0 3.1 22 35
r 0.786412 1 2 tcp 1040 ------- 2 1.0 3.1 20 32
+ 0.786412 2 3 tcp 1040 ------- 2 1.0 3.1 20 32
- 0.786412 2 3 tcp 1040 ------- 2 1.0 3.1 20 32
r 0.788092 2 3 tcp 1040 ------- 2 1.0 3.1 18 29
+ 0.788092 3 2 ack 40 ------- 2 3.1 1.0 18 51
- 0.788092 3 2 ack 40 ------- 2 3.1 1.0 18 51
r 0.790092 3 2 ack 40 ------- 2 3.1 1.0 17 48
+ 0.790092 2 1 ack 40 ------- 2 3.1 1.0 17 48
- 0.790092 2 1 ack 40 ------- 2 3.1 1.0 17 48
r 0.792092 2 1 ack 40 ------- 2 3.1 1.0 16 45
+ 0.792092 1 2 tcp 1040 ------- 2 1.0 3.1 33 52
+ 0.792092 1 2 tcp 1040 ------- 2 1.0 3.1 34 53
- 0.793052 1 2 tcp 1040 ------- 2 1.0 3.1 23 37
r 0.794732 1 2 tcp 1040 ------- 2 1.0 3.1 21 34
+ 0.794732 2 3 tcp 1040 ------- 2 1.0 3.1 21 34
- 0.794732 2 3 tcp 1040 ------- 2 1.0 3.1 21 34
r 0.796412 2 3 tcp 1040 ------- 2 1.0 3.1 19 31
+ 0.796412 3 2 ack 40 ------- 2 3.1 1.0 19 54
- 0.796412 3 2 ack 40 ------- 2 3.1 1.0 19 54
r 0.798412 3 2 ack 40 ------- 2 3.1 1.0 18 51
+ 0.798412 2 1 ack 40 ------- 2 3.1 1.0 18 51
- 0.798412 2 1 ack 40 ------- 2 3.1 1.0 18 51
r 0.800412 2 1 ack 40 ------- 2 3.1 1.0 17 48
+ 0.800412 1 2 tcp 1040 ------- 2 1.0 3.1 35 55
+ 0.800412 1 2 tcp 1040 ------- 2 1.0 3.1 36 56
- 0.801372 1 2 tcp 1040 ------- 2 1.0 3.1 24 38
r 0.803052 1 2 tcp 1040 ------- 2 1.0 3.1 22 35
+ 0.803052 2 3 tcp 1040 ------- 2 1.0 3.1 22 35
- 0.803052 2 3 tcp 1040 ------- 2 1.0 3.1 22 35
r 0.804732 2 3 tcp 1040 ------- 2 1.0 3.1 20 32
+ 0.804732 3 2 ack 40 ------- 2 3.1 1.0 20 57
- 0.804732 3 2 ack 40 ------- 2 3.1 1.0 20 57
r 0.806732 3 2 ack 40 ------- 2 3.1 1.0 19 54
+ 0.806732 2 1 ack 40 ------- 2 3.1 1.0 19 54
- 0.806732 2 1 ack 40 ------- 2 3.1 1.0 19 54
r 0.808732 2 1 ack 40 ------- 2 3.1 1.0 18 51
+ 0.808732 1 2 tcp 1040 ------- 2 1.0 3.1 37 58
+ 0.808732 1 2 tcp 1040 ------- 2 1.0 3.1 38 59
- 0.809692 1 2 tcp 1040 ------- 2 1.0 3.1 25 40
r 0.811372 1 2 tcp 1040 ------- 2 1.0 3.1 23 37
+ 0.811372 2 3 tcp 1040 ------- 2 1.0 3.1 23 37
- 0.811372 2 3 tcp 1040 ------- 2 1.0 3.1 23 37
r 0.813052 2 3 tcp 1040 ------- 2 1.0 3.1 21 34
+ 0.813052 3 2 ack 40 ------- 2 3.1 1.0 21 60
- 0.813052 3 2 ack 40 ------- 2 3.1 1.0 21 60
r 0.815052 3 2 ack 40 ------- 2 3.1 1.0 20 57
+ 0.815052 2 1 ack 40 ------- 2 3.1 1.0 20 57
- 0.815052 2 1 ack 40 ------- 2 3.1 1.0 20 57
r 0.817052 2 1 ack 40 ------- 2 3.1 1.0 19 54
+ 0.817052 1 2 tcp 1040 ------- 2 1.0 3.1 39 61
- 0.818012 1 2 tcp 1040 ------- 2 1.0 3.1 26 41
r 0.819692 1 2 tcp 1040 ------- 2 1.0 3.1 24 38
+ 0.819692 2 3 tcp 1040 ------- 2 1.0 3.1 24 38
- 0.819692 2 3 tcp 1040 ------- 2 1.0 3.1 24 38
r 0.821372 2 3 tcp 1040 ------- 2 1.0 3.1 22 35
+ 0.821372 3 2 ack 40 ------- 2 3.1 1.0 22 62
- 0.821372 3 2 ack 40 ------- 2 3.1 1.0 22 62
r 0.823372 3 2 ack 40 ------- 2 3.1 1.0 21 60
+ 0.823372 2 1 ack 40 ------- 2 3.1 1.0 21 60
- 0.823372 2 1 ack 40 ------- 2 3.1 1.0 21 60
r 0.825372 2 1 ack 40 ------- 2 3.1 1.0 20 57
+ 0.825372 1 2 tcp 1040 ------- 2 1.0 3.1 40 63
- 0.826332 1 2 tcp 1040 ------- 2 1.0 3.1 27 43
r 0.828012 1 2 tcp 1040 ------- 2 1.0 3.1 25 40
+ 0.828012 2 3 tcp 1040 ------- 2 1.0 3.1 25 40
- 0.828012 2 3 tcp 1040 ------- 2 1.0 3.1 25 40
r 0.829692 2 3 tcp 1040 ------- 2 1.0 3.1 23 37
+ 0.829692 3 2 ack 40 ------- 2 3.1 1.0 23 64
- 0.829692 3 2 ack 40 ------- 2 3.1 1.0 23 64
r 0.831692 3 2 ack 40 ------- 2 3.1 1.0 22 62
+ 0.831692 2 1 ack 40 ------- 2 3.1 1.0 22 62
- 0.831692 2 1 ack 40 ------- 2 3.1 1.0 22 62
r 0.833692 2 1 ack 40 ------- 2 3.1 1.0 21 60
+ 0.833692 1 2 tcp 1040 ------- 2 1.0 3.1 41 65
- 0.834652 1 2 tcp 1040 ------- 2 1.0 3.1 28 44
r 0.836332 1 2 tcp 1040 ------- 2 1.0 3.1 26 41
+ 0.836332 2 3 tcp 1040 ------- 2 1.0 3.1 26 41
- 0.836332 2 3 tcp 1040 ------- 2 1.0 3.1 26 41
r 0.838012 2 3 tcp 1040 ------- 2 1.0 3.1 24 38
+ 0.838012 3 2 ack 40 ------- 2 3.1 1.0 24 66
- 0.838012 3 2 ack 40 ------- 2 3.1 1.0 24 66
r 0.840012 3 2 ack 40 ------- 2 3.1 1.0 23 64
+ 0.840012 2 1 ack 40 ------- 2 3.1 1.0 23 64
- 0.840012 2 1 ack 40 ------- 2 3.1 1.0 23 64
r 0.842012 2 1 ack 40 ------- 2 3.1 1.0 22 62
+ 0.842012 1 2 tcp 1040 ------- 2 1.0 3.1 42 67
- 0.842972 1 2 tcp 1040 ------- 2 1.0 3.1 29 46
r 0.844652 1 2 tcp 1040 ------- 2 1.0 3.1 27 43
+ 0.844652 2 3 tcp 1040 ------- 2 1.0 3.1 27 43
- 0.844652 2 3 tcp 1040 ------- 2 1.0 3.1 27 43
r 0.846332 2 3 tcp 1040 ------- 2 1.0 3.1 25 40
+ 0.846332 3 2 ack 40 ------- 2 3.1 1.0 25 68
- 0.846332 3 2 ack 40 ------- 2 3.1 1.0 25 68
r 0.848332 3 2 ack 40 ------- 2 3.1 1.0 24 66
+ 0.848332 2 1 ack 40 ------- 2 3.1 1.0 24 66
- 0.848332 2 1 ack 40 ------- 2 3.1 1.0 24 66
r 0.850332 2 1 ack 40 ------- 2 3.1 1.0 23 64
+ 0.850332 1 2 tcp 1040 ------- 2 1.0 3.1 43 69
- 0.851292 1 2 tcp 1040 ------- 2 1.0 3.1 30 47
r 0.852972 1 2 tcp 1040 ------- 2 1.0 3.1 28 44
+ 0.852972 2 3 tcp 1040 ------- 2 1.0 3.1 28 44
- 0.852972 2 3 tcp 1040 ------- 2 1.0 3.1 28 44
r 0.854652 2 3 tcp 1040 ------- 2 1.0 3.1 26 41
+ 0.854652 3 2 ack 40 ------- 2 3.1 1.0 26 70
- 0.854652 3 2 ack 40 ------- 2 3.1 1.0 26 70
r 0.856652 3 2 ack 40 ------- 2 3.1 1.0 25 68
+ 0.856652 2 1 ack 40 ------- 2 3.1 1.0 25 68
- 0.856652 2 1 ack 40 ------- 2 3.1 1.0 25 68
r 0.858652 2 1 ack 40 ------- 2 3.1 1.0 24 66
+ 0.858652 1 2 tcp 1040 ------- 2 1.0 3.1 44 71
- 0.859612 1 2 tcp 1040 ------- 2 1.0 3.1 31 49
r 0.861292 1 2 tcp 1040 ------- 2 1.0 3.1 29 46
+ 0.861292 2 3 tcp 1040 ------- 2 1.0 3.1 29 46
- 0.861292 2 3 tcp 1040 ------- 2 1.0 3.1 29 46
r 0.862972 2 3 tcp 1040 ------- 2 1.0 3.1 27 43
+ 0.862972 3 2 ack 40 ------- 2 3.1 1.0 27 72
- 0.862972 3 2 ack 40 ------- 2 3.1 1.0 27 72
r 0.864972 3 2 ack 40 ------- 2 3.1 1.0 26 70
+ 0.864972 2 1 ack 40 ------- 2 3.1 1.0 26 70
- 0.864972 2 1 ack 40 ------- 2 3.1 1.0 26 70
r 0.866972 2 1 ack 40 ------- 2 3.1 1.0 25 68
+ 0.866972 1 2 tcp 1040 ------- 2 1.0 3.1 45 73
- 0.867932 1 2 tcp 1040 ------- 2 1.0 3.1 32 50
r 0.869612 1 2 tcp 1040 ------- 2 1.0 3.1 30 47
+ 0.869612 2 3 tcp 1040 ------- 2 1.0 3.1 30 47
- 0.869612 2 3 tcp 1040 ------- 2 1.0 3.1 30 47
r 0.871292 2 3 tcp 1040 ------- 2 1.0 3.1 28 44
+ 0.871292 3 2 ack 40 ------- 2 3.1 1.0 28 74
- 0.871292 3 2 ack 40 ------- 2 3.1 1.0 28 74
r 0.873292 3 2 ack 40 ------- 2 3.1 1.0 27 72
+ 0.873292 2 1 ack 40 ------- 2 3.1 1.0 27 72
- 0.873292 2 1 ack 40 ------- 2 3.1 1.0 27 72
r 0.875292 2 1 ack 40 ------- 2 3.1 1.0 26 70
+ 0.875292 1 2 tcp 1040 ------- 2 1.0 3.1 46 75
- 0.876252 1 2 tcp 1040 ------- 2 1.0 3.1 33 52
r 0.877932 1 2 tcp 1040 ------- 2 1.0 3.1 31 49
+ 0.877932 2 3 tcp 1040 ------- 2 1.0 3.1 31 49
- 0.877932 2 3 tcp 1040 ------- 2 1.0 3.1 31 49
r 0.879612 2 3 tcp 1040 ------- 2 1.0 3.1 29 46
+ 0.879612 3 2 ack 40 ------- 2 3.1 1.0 29 76
- 0.879612 3 2 ack 40 ------- 2 3.1 1.0 29 76
r 0.881612 3 2 ack 40 ------- 2 3.1 1.0 28 74
+ 0.881612 2 1 ack 40 ------- 2 3.1 1.0 28 74
- 0.881612 2 1 ack 40 ------- 2 3.1 1.0 28 74
r 0.883612 2 1 ack 40 ------- 2 3.1 1.0 27 72
+ 0.883612 1 2 tcp 1040 ------- 2 1.0 3.1 47 77
- 0.884572 1 2 tcp 1040 ------- 2 1.0 3.1 34 53
r 0.886252 1 2 tcp 1040 ------- 2 1.0 3.1 32 50
+ 0.886252 2 3 tcp 1040 ------- 2 1.0 3.1 32 50
- 0.886252 2 3 tcp 1040 ------- 2 1.0 3.1 32 50
r 0.887932 2 3 tcp 1040 ------- 2 1.0 3.1 30 47
+ 0.887932 3 2 ack 40 ------- 2 3.1 1.0 30 78
- 0.887932 3 2 ack 40 ------- 2 3.1 1.0 30 78
r 0.889932 3 2 ack 40 ------- 2 3.1 1.0 29 76
+ 0.889932 2 1 ack 40 ------- 2 3.1 1.0 29 76
- 0.889932 2 1 ack 40 ------- 2 3.1 1.0 29 76
r 0.891932 2 1 ack 40 ------- 2 3.1 1.0 28 74
+ 0.891932 1 2 tcp 1040 ------- 2 1.0 3.1 48 79
- 0.892892 1 2 tcp 1040 ------- 2 1.0 3.1 35 55
r 0.894572 1 2 tcp 1040 ------- 2 1.0 3.1 33 52
+ 0.894572 2 3 tcp 1040 ------- 2 1.0 3.1 33 52
- 0.894572 2 3 tcp 1040 ------- 2 1.0 3.1 33 52
r 0.896252 2 3 tcp 1040 ------- 2 1.0 3.1 31 49
+ 0.896252 3 2 ack 40 ------- 2 3.1 1.0 31 80
- 0.896252 3 2 ack 40 ------- 2 3.1 1.0 31 80
r 0.898252 3 2 ack 40 ------- 2 3.1 1.0 30 78
+ 0.898252 2 1 ack 40 ------- 2 3.1 1.0 30 78
- 0.898252 2 1 ack 40 ------- 2 3.1 1.0 30 78
r 0.900252 2 1 ack 40 ------- 2 3.1 1.0 29 76
+ 0.900252 1 2 tcp 1040 ------- 2 1.0 3.1 49 81
- 0.901212 1 2 tcp 1040 ------- 2 1.0 3.1 36 56
r 0.902892 1 2 tcp 1040 ------- 2 1.0 3.1 34 53
+ 0.902892 2 3 tcp 1040 ------- 2 1.0 3.1 34 53
- 0.902892 2 3 tcp 1040 ------- 2 1.0 3.1 34 53
r 0.904572 2 3 tcp 1040 ------- 2 1.0 3.1 32 50
+ 0.904572 3 2 ack 40 ------- 2 3.1 1.0 32 82
- 0.904572 3 2 ack 40 ------- 2 3.1 1.0 32 82
r 0.906572 3 2 ack 40 ------- 2 3.1 1.0 31 80
+ 0.906572 2 1 ack 40 ------- 2 3.1 1.0 31 80
- 0.906572 2 1 ack 40 ------- 2 3.1 1.0 31 80
r 0.908572 2 1 ack 40 ------- 2 3.1 1.0 30 78
+ 0.908572 1 2 tcp 1040 ------- 2 1.0 3.1 50 83
- 0.909532 1 2 tcp 1040 ------- 2 1.0 3.1 37 58
r 0.911212 1 2 tcp 1040 ------- 2 1.0 3.1 35 55
+ 0.911212 2 3 tcp 1040 ------- 2 1.0 3.1 35 55
- 0.911212 2 3 tcp 1040 ------- 2 1.0 3.1 35 55
r 0.912892 2 3 tcp 1040 ------- 2 1.0 3.1 33 52
+ 0.912892 3 2 ack 40 ------- 2 3.1 1.0 33 84
- 0.912892 3 2 ack 40 ------- 2 3.1 1.0 33 84
r 0.914892 3 2 ack 40 ------- 2 3.1 1.0 32 82
+ 0.914892 2 1 ack 40 ------- 2 3.1 1.0 32 82
- 0.914892 2 1 ack 40 ------- 2 3.1 1.0 32 82
r 0.916892 2 1 ack 40 ------- 2 3.1 1.0 31 80
+ 0.916892 1 2 tcp 1040 ------- 2 1.0 3.1 51 85
- 0.917852 1 2 tcp 1040 ------- 2 1.0 3.1 38 59
r 0.919532 1 2 tcp 1040 ------- 2 1.0 3.1 36 56
+ 0.919532 2 3 tcp 1040 ------- 2 1.0 3.1 36 56
- 0.919532 2 3 tcp 1040 ------- 2 1.0 3.1 36 56
r 0.921212 2 3 tcp 1040 ------- 2 1.0 3.1 34 53
+ 0.921212 3 2 ack 40 ------- 2 3.1 1.0 34 86
- 0.921212 3 2 ack 40 ------- 2 3.1 1.0 34 86
r 0.923212 3 2 ack 40 ------- 2 3.1 1.0 33 84
+ 0.923212 2 1 ack 40 ------- 2 3.1 1.0 33 84
- 0.923212 2 1 ack 40 ------- 2 3.1 1.0 33 84
r 0.925212 2 1 ack 40 ------- 2 3.1 1.0 32 82
+ 0.925212 1 2 tcp 1040 ------- 2 1.0 3.1 52 87
- 0.926172 1 2 tcp 1040 ------- 2 1.0 3.1 39 61
r 0.927852 1 2 tcp 1040 ------- 2 1.0 3.1 37 58
+ 0.927852 2 3 tcp 1040 ------- 2 1.0 3.1 37 58
- 0.927852 2 3 tcp 1040 ------- 2 1.0 3.1 37 58
r 0.929532 2 3 tcp 1040 ------- 2 1.0 3.1 35 55
+ 0.929532 3 2 ack 40 ------- 2 3.1 1.0 35 88
- 0.929532 3 2 ack 40 ------- 2 3.1 1.0 35 88
r 0.931532 3 2 ack 40 ------- 2 3.1 1.0 34 86
+ 0.931532 2 1 ack 40 ------- 2 3.1 1.0 34 86
- 0.931532 2 1 ack 40 ------- 2 3.1 1.0 34 86
r 0.933532 2 1 ack 40 ------- 2 3.1 1.0 33 84
+ 0.933532 1 2 tcp 1040 ------- 2 1.0 3.1 53 89
- 0.934492 1 2 tcp 1040 ------- 2 1.0 3.1 40 63
r 0.936172 1 2 tcp 1040 ------- 2 1.0 3.1 38 59
+ 0.936172 2 3 tcp 1040 ------- 2 1.0 3.1 38 59
- 0.936172 2 3 tcp 1040 ------- 2 1.0 3.1 38 59
r 0.937852 2 3 tcp 1040 ------- 2 1.0 3.1 36 56
+ 0.937852 3 2 ack 40 ------- 2 3.1 1.0 36 90
- 0.937852 3 2 ack 40 ------- 2 3.1 1.0 36 90
r 0.939852 3 2 ack 40 ------- 2 3.1 1.0 35 88
+ 0.939852 2 1 ack 40 ------- 2 3.1 1.0 35 88
- 0.939852 2 1 ack 40 ------- 2 3.1 1.0 35 88
r 0.941852 2 1 ack 40 ------- 2 3.1 1.0 34 86
+ 0.941852 1 2 tcp 1040 ------- 2 1.0 3.1 54 91
- 0.942812 1 2 tcp 1040 ------- 2 1.0 3.1 41 65
r 0.944492 1 2 tcp 1040 ------- 2 1.0 3.1 39 61
+ 0.944492 2 3 tcp 1040 ------- 2 1.0 3.1 39 61
- 0.944492 2 3 tcp 1040 ------- 2 1.0 3.1 39 61
r 0.946172 2 3 tcp 1040 ------- 2 1.0 3.1 37 58
+ 0.946172 3 2 ack 40 ------- 2 3.1 1.0 37 92
- 0.946172 3 2 ack 40 ------- 2 3.1 1.0 37 92
r 0.948172 3 2 ack 40 ------- 2 3.1 1.0 36 90
+ 0.948172 2 1 ack 40 ------- 2 3.1 1.0 36 90
- 0.948172 2 1 ack 40 ------- 2 3.1 1.0 36 90
r 0.950172 2 1 ack 40 ------- 2 3.1 1.0 35 88
+ 0.950172 1 2 tcp 1040 ------- 2 1.0 3.1 55 93
- 0.951132 1 2 tcp 1040 ------- 2 1.0 3.1 42 67
r 0.952812 1 2 tcp 1040 ------- 2 1.0 3.1 40 63
+ 0.952812 2 3 tcp 1040 ------- 2 1.0 3.1 40 63
- 0.952812 2 3 tcp 1040 ------- 2 1.0 3.1 40 63
r 0.954492 2 3 tcp 1040 ------- 2 1.0 3.1 38 59
+ 0.954492 3 2 ack 40 ------- 2 3.1 1.0 38 94
- 0.954492 3 2 ack 40 ------- 2 3.1 1.0 38 94
r 0.956492 3 2 ack 40 ------- 2 3.1 1.0 37 92
+ 0.956492 2 1 ack 40 ------- 2 3.1 1.0 37 92
- 0.956492 2 1 ack 40 ------- 2 3.1 1.0 37 92
r 0.958492 2 1 ack 40 ------- 2 3.1 1.0 36 90
+ 0.958492 1 2 tcp 1040 ------- 2 1.0 3.1 56 95
- 0.959452 1 2 tcp 1040 ------- 2 1.0 3.1 43 69
r 0.961132 1 2 tcp 1040 ------- 2 1.0 3.1 41 65
+ 0.961132 2 3 tcp 1040 ------- 2 1.0 3.1 41 65
- 0.961132 2 3 tcp 1040 ------- 2 1.0 3.1 41 65
r 0.962812 2 3 tcp 1040 ------- 2 1.0 3.1 39 61
+ 0.962812 3 2 ack 40 ------- 2 3.1 1.0 39 96
- 0.962812 3 2 ack 40 ------- 2 3.1 1.0 39 96
r 0.964812 3 2 ack 40 ------- 2 3.1 1.0 38 94
+ 0.964812 2 1 ack 40 ------- 2 3.1 1.0 38 94
- 0.964812 2 1 ack 40 ------- 2 3.1 1.0 38 94
r 0.966812 2 1 ack 40 ------- 2 3.1 1.0 37 92
+ 0.966812 1 2 tcp 1040 ------- 2 1.0 3.1 57 97
- 0.967772 1 2 tcp 1040 ------- 2 1.0 3.1 44 71
r 0.969452 1 2 tcp 1040 ------- 2 1.0 3.1 42 67
+ 0.969452 2 3 tcp 1040 ------- 2 1.0 3.1 42 67
- 0.969452 2 3 tcp 1040 ------- 2 1.0 3.1 42 67
r 0.971132 2 3 tcp 1040 ------- 2 1.0 3.1 40 63
+ 0.971132 3 2 ack 40 ------- 2 3.1 1.0 40 98
- 0.971132 3 2 ack 40 ------- 2 3.1 1.0 40 98
r 0.973132 3 2 ack 40 ------- 2 3.1 1.0 39 96
+ 0.973132 2 1 ack 40 ------- 2 3.1 1.0 39 96
- 0.973132 2 1 ack 40 ------- 2 3.1 1.0 39 96
r 0.975132 2 1 ack 40 ------- 2 3.1 1.0 38 94
+ 0.975132 1 2 tcp 1040 ------- 2 1.0 3.1 58 99
- 0.976092 1 2 tcp 1040 ------- 2 1.0 3.1 45 73
r 0.977772 1 2 tcp 1040 ------- 2 1.0 3.1 43 69
+ 0.977772 2 3 tcp 1040 ------- 2 1.0 3.1 43 69
- 0.977772 2 3 tcp 1040 ------- 2 1.0 3.1 43 69
r 0.979452 2 3 tcp 1040 ------- 2 1.0 3.1 41 65
+ 0.979452 3 2 ack 40 ------- 2 3.1 1.0 41 100
- 0.979452 3 2 ack 40 ------- 2 3.1 1.0 41 100
r 0.981452 3 2 ack 40 ------- 2 3.1 1.0 40 98
+ 0.981452 2 1 ack 40 ------- 2 3.1 1.0 40 98
- 0.981452 2 1 ack 40 ------- 2 3.1 1.0 40 98
r 0.983452 2 1 ack 40 ------- 2 3.1 1.0 39 96
+ 0.983452 1 2 tcp 1040 ------- 2 1.0 3.1 59 101
- 0.984412 1 2 tcp 1040 ------- 2 1.0 3.1 46 75
r 0.986092 1 2 tcp 1040 ------- 2 1.0 3.1 44 71
+ 0.986092 2 3 tcp 1040 ------- 2 1.0 3.1 44 71
- 0.986092 2 3 tcp 1040 ------- 2 1.0 3.1 44 71
r 0.987772 2 3 tcp 1040 ------- 2 1.0 3.1 42 67
+ 0.987772 3 2 ack 40 ------- 2 3.1 1.0 42 102
- 0.987772 3 2 ack 40 ------- 2 3.1 1.0 42 102
r 0.989772 3 2 ack 40 ------- 2 3.1 1.0 41 100
+ 0.989772 2 1 ack 40 ------- 2 3.1 1.0 41 100
- 0.989772 2 1 ack 40 ------- 2 3.1 1.0 41 100
r 0.991772 2 1 ack 40 ------- 2 3.1 1.0 40 98
+ 0.991772 1 2 tcp 1040 ------- 2 1.0 3.1 60 103
- 0.992732 1 2 tcp 1040 ------- 2 1.0 3.1 47 77
r 0.994412 1 2 tcp 1040 ------- 2 1.0 3.1 45 73
+ 0.994412 2 3 tcp 1040 ------- 2 1.0 3.1 45 73
- 0.994412 2 3 tcp 1040 ------- 2 1.0 3.1 45 73
r 0.996092 2 3 tcp 1040 ------- 2 1.0 3.1 43 69
+ 0.996092 3 2 ack 40 ------- 2 3.1 1.0 43 104
- 0.996092 3 2 ack 40 ------- 2 3.1 1.0 43 104
r 0.998092 3 2 ack 40 ------- 2 3.1 1.0 42 102
+ 0.998092 2 1 ack 40 ------- 2 3.1 1.0 42 102
- 0.998092 2 1 ack 40 ------- 2 3.1 1.0 42 102
+ 1 0 2 tcp 40 ------- 1 0.0 3.0 0 105
- 1 0 2 tcp 40 ------- 1 0.0 3.0 0 105
r 1.000092 2 1 ack 40 ------- 2 3.1 1.0 41 100
+ 1.000092 1 2 tcp 1040 ------- 2 1.0 3.1 61 106
- 1.001052 1 2 tcp 1040 ------- 2 1.0 3.1 48 79
r 1.002732 1 2 tcp 1040 ------- 2 1.0 3.1 46 75
+ 1.002732 2 3 tcp 1040 ------- 2 1.0 3.1 46 75
- 1.002732 2 3 tcp 1040 ------- 2 1.0 3.1 46 75
r 1.004412 2 3 tcp 1040 ------- 2 1.0 3.1 44 71
+ 1.004412 3 2 ack 40 ------- 2 3.1 1.0 44 107
- 1.004412 3 2 ack 40 ------- 2 3.1 1.0 44 107
r 1.006412 3 2 ack 40 ------- 2 3.1 1.0 43 104
+ 1.006412 2 1 ack 40 ------- 2 3.1 1.0 43 104
- 1.006412 2 1 ack 40 ------- 2 3.1 1.0 43 104
r 1.008412 2 1 ack 40 ------- 2 3.1 1.0 42 102
+ 1.008412 1 2 tcp 1040 ------- 2 1.0 3.1 62 108
- 1.009372 1 2 tcp 1040 ------- 2 1.0 3.1 49 81
r 1.01032 0 2 tcp 40 ------- 1 0.0 3.0 0 105
+ 1.01032 2 3 tcp 40 ------- 1 0.0 3.0 0 105
r 1.011052 1 2 tcp 1040 ------- 2 1.0 3.1 47 77
+ 1.011052 2 3 tcp 1040 ------- 2 1.0 3.1 47 77
- 1.011052 2 3 tcp 40 ------- 1 0.0 3.0 0 105
- 1.011372 2 3 tcp 1040 ------- 2 1.0 3.1 47 77
r 1.012732 2 3 tcp 1040 ------- 2 1.0 3.1 45 73
+ 1.012732 3 2 ack 40 ------- 2 3.1 1.0 45 109
- 1.012732 3 2 ack 40 ------- 2 3.1 1.0 45 109
r 1.014732 3 2 ack 40 ------- 2 3.1 1.0 44 107
+ 1.014732 2 1 ack 40 ------- 2 3.1 1.0 44 107
- 1.014732 2 1 ack 40 ------- 2 3.1 1.0 44 107
r 1.016732 2 1 ack 40 ------- 2 3.1 1.0 43 104
+ 1.016732 1 2 tcp 1040 ------- 2 1.0 3.1 63 110
- 1.017692 1 2 tcp 1040 ------- 2 1.0 3.1 50 83
r 1.019372 1 2 tcp 1040 ------- 2 1.0 3.1 48 79
+ 1.019372 2 3 tcp 1040 ------- 2 1.0 3.1 48 79
- 1.019692 2 3 tcp 1040 ------- 2 1.0 3.1 48 79
r 1.021052 2 3 tcp 1040 ------- 2 1.0 3.1 46 75
+ 1.021052 3 2 ack 40 ------- 2 3.1 1.0 46 111
- 1.021052 3 2 ack 40 ------- 2 3.1 1.0 46 111
r 1.021372 2 3 tcp 40 ------- 1 0.0 3.0 0 105
+ 1.021372 3 2 ack 40 ------- 1 3.0 0.0 0 112
- 1.021372 3 2 ack 40 ------- 1 3.0 0.0 0 112
r 1.023052 3 2 ack 40 ------- 2 3.1 1.0 45 109
+ 1.023052 2 1 ack 40 ------- 2 3.1 1.0 45 109
- 1.023052 2 1 ack 40 ------- 2 3.1 1.0 45 109
r 1.025052 2 1 ack 40 ------- 2 3.1 1.0 44 107
+ 1.025052 1 2 tcp 1040 ------- 2 1.0 3.1 64 113
- 1.026012 1 2 tcp 1040 ------- 2 1.0 3.1 51 85
r 1.027692 1 2 tcp 1040 ------- 2 1.0 3.1 49 81
+ 1.027692 2 3 tcp 1040 ------- 2 1.0 3.1 49 81
- 1.028012 2 3 tcp 1040 ------- 2 1.0 3.1 49 81
r 1.029692 2 3 tcp 1040 ------- 2 1.0 3.1 47 77
+ 1.029692 3 2 ack 40 ------- 2 3.1 1.0 47 114
- 1.029692 3 2 ack 40 ------- 2 3.1 1.0 47 114
r 1.031372 3 2 ack 40 ------- 2 3.1 1.0 46 111
+ 1.031372 2 1 ack 40 ------- 2 3.1 1.0 46 111
- 1.031372 2 1 ack 40 ------- 2 3.1 1.0 46 111
r 1.031692 3 2 ack 40 ------- 1 3.0 0.0 0 112
+ 1.031692 2 0 ack 40 ------- 1 3.0 0.0 0 112
- 1.031692 2 0 ack 40 ------- 1 3.0 0.0 0 112
r 1.033372 2 1 ack 40 ------- 2 3.1 1.0 45 109
+ 1.033372 1 2 tcp 1040 ------- 2 1.0 3.1 65 115
- 1.034332 1 2 tcp 1040 ------- 2 1.0 3.1 52 87
r 1.036012 1 2 tcp 1040 ------- 2 1.0 3.1 50 83
+ 1.036012 2 3 tcp 1040 ------- 2 1.0 3.1 50 83
- 1.036332 2 3 tcp 1040 ------- 2 1.0 3.1 50 83
r 1.038012 2 3 tcp 1040 ------- 2 1.0 3.1 48 79
+ 1.038012 3 2 ack 40 ------- 2 3.1 1.0 48 116
- 1.038012 3 2 ack 40 ------- 2 3.1 1.0 48 116
r 1.040012 3 2 ack 40 ------- 2 3.1 1.0 47 114
+ 1.040012 2 1 ack 40 ------- 2 3.1 1.0 47 114
- 1.040012 2 1 ack 40 ------- 2 3.1 1.0 47 114
r 1.041692 2 1 ack 40 ------- 2 3.1 1.0 46 111
+ 1.041692 1 2 tcp 1040 ------- 2 1.0 3.1 66 117
r 1.042012 2 0 ack 40 ------- 1 3.0 0.0 0 112
+ 1.042012 0 2 tcp 1040 ------- 1 0.0 3.0 1 118
- 1.042012 0 2 tcp 1040 ------- 1 0.0 3.0 1 118
+ 1.042012 0 2 tcp 1040 ------- 1 0.0 3.0 2 119
- 1.042652 1 2 tcp 1040 ------- 2 1.0 3.1 53 89
r 1.044332 1 2 tcp 1040 ------- 2 1.0 3.1 51 85
+ 1.044332 2 3 tcp 1040 ------- 2 1.0 3.1 51 85
- 1.044652 2 3 tcp 1040 ------- 2 1.0 3.1 51 85
r 1.046332 2 3 tcp 1040 ------- 2 1.0 3.1 49 81
+ 1.046332 3 2 ack 40 ------- 2 3.1 1.0 49 120
- 1.046332 3 2 ack 40 ------- 2 3.1 1.0 49 120
r 1.048332 3 2 ack 40 ------- 2 3.1 1.0 48 116
+ 1.048332 2 1 ack 40 ------- 2 3.1 1.0 48 116
- 1.048332 2 1 ack 40 ------- 2 3.1 1.0 48 116
r 1.050332 2 1 ack 40 ------- 2 3.1 1.0 47 114
+ 1.050332 1 2 tcp 1040 ------- 2 1.0 3.1 67 121
- 1.050332 0 2 tcp 1040 ------- 1 0.0 3.0 2 119
- 1.050972 1 2 tcp 1040 ------- 2 1.0 3.1 54 91