V -t * -v 1.0a5 -a 0
A -t * -n 1 -p 0 -o 0x7fffffff -c 30 -a 1
A -t * -h 1 -m 1073741823 -s 0
c -t * -i 1 -n Red
c -t * -i 2 -n Blue
n -t * -a 0 -s 0 -S UP -v circle -c Red -i Red
n -t * -a 1 -s 1 -S UP -v circle -c Blue -i Blue
n -t * -a 2 -s 2 -S UP -v circle -c black -i black
n -t * -a 3 -s 3 -S UP -v circle -c Purple -i Purple
l -t * -s 0 -d 2 -S UP -r 1000000 -D 0.01 -c black -o right-down
l -t * -s 1 -d 2 -S UP -r 1000000 -D 0.01 -c black -o right-up
l -t * -s 2 -d 3 -S UP -r 1000000 -D 0.01 -c black -o right
+ -t 0.504091586621143 -s 1 -d 2 -p tcp -e 40 -c 2 -i 0 -a 2 -x {1.0 3.1 0 ------- null}
- -t 0.504091586621143 -s 1 -d 2 -p tcp -e 40 -c 2 -i 0 -a 2 -x {1.0 3.1 0 ------- null}
h -t 0.504091586621143 -s 1 -d 2 -p tcp -e 40 -c 2 -i 0 -a 2 -x {1.0 3.1 -1 ------- null}
r -t 0.514411586621143 -s 1 -d 2 -p tcp -e 40 -c 2 -i 0 -a 2 -x {1.0 3.1 0 ------- null}
+ -t 0.514411586621143 -s 2 -d 3 -p tcp -e 40 -c 2 -i 0 -a 2 -x {1.0 3.1 0 ------- null}
- -t 0.514411586621143 -s 2 -d 3 -p tcp -e 40 -c 2 -i 0 -a 2 -x {1.0 3.1 0 ------- null}
h -t 0.514411586621143 -s 2 -d 3 -p tcp -e 40 -c 2 -i 0 -a 2 -x {1.0 3.1 -1 ------- null}
r -t 0.524731586621142 -s 2 -d 3 -p tcp -e 40 -c 2 -i 0 -a 2 -x {1.0 3.1 0 ------- null}
+ -t 0.524731586621142 -s 3 -d 2 -p ack -e 40 -c 2 -i 1 -a 2 -x {3.1 1.0 0 ------- null}
- -t 0.524731586621142 -s 3 -d 2 -p ack -e 40 -c 2 -i 1 -a 2 -x {3.1 1.0 0 ------- null}
h -t 0.524731586621142 -s 3 -d 2 -p ack -e 40 -c 2 -i 1 -a 2 -x {3.1 1.0 -1 ------- null}
r -t 0.535051586621142 -s 3 -d 2 -p ack -e 40 -c 2 -i 1 -a 2 -x {3.1 1.0 0 ------- null}
+ -t 0.535051586621142 -s 2 -d 1 -p ack -e 40 -c 2 -i 1 -a 2 -x {3.1 1.0 0 ------- null}
- -t 0.535051586621142 -s 2 -d 1 -p ack -e 40 -c 2 -i 1 -a 2 -x {3.1 1.0 0 ------- null}
h -t 0.535051586621142 -s 2 -d 1 -p ack -e 40 -c 2 -i 1 -a 2 -x {3.1 1.0 -1 ------- null}
r -t 0.545371586621142 -s 2 -d 1 -p ack -e 40 -c 2 -i 1 -a 2 -x {3.1 1.0 0 ------- null}
+ -t 0.545371586621142 -s 1 -d 2 -p tcp -e 1040 -c 2 -i 2 -a 2 -x {1.0 3.1 1 ------- null}
- -t 0.545371586621142 -s 1 -d 2 -p tcp -e 1040 -c 2 -i 2 -a 2 -x {1.0 3.1 1 ------- null}
h -t 0.545371586621142 -s 1 -d 2 -p tcp -e 1040 -c 2 -i 2 -a 2 -x {1.0 3.1 -1 ------- null}
+ -t 0.545371586621142 -s 1 -d 2 -p tcp -e 1040 -c 2 -i 3 -a 2 -x {1.0 3.1 2 ------- null}
- -t 0.553691586621142 -s 1 -d 2 -p tcp -e 1040 -c 2 -i 3 -a 2 -x {1.0 3.1 2 ------- null}
h -t 0.553691586621142 -s 1 -d 2 -p tcp -e 1040 -c 2 -i 3 -a 2 -x {1.0 3.1 -1 ------- null}
r -t 0.563691586621142 -s 1 -d 2 -p tcp -e 1040 -c 2 -i 2 -a 2 -x {1.0 3.1 1 ------- null}
+ -t 0.563691586621142 -s 2 -d 3 -p tcp -e 1040 -c 2 -i 2 -a 2 -x {1.0 3.1 1 ------- null}
- -t 0.563691586621142 -s 2 -d 3 -p tcp -e 1040 -c 2 -i 2 -a 2 -x {1.0 3.1 1 ------- null}
h -t 0.563691586621142 -s 2 -d 3 -p tcp -e 1040 -c 2 -i 2 -a 2 -x {1.0 3.1 -1 ------- null}
r -t 0.572011586621142 -s 1 -d 2 -p tcp -e 1040 -c 2 -i 3 -a 2 -x {1.0 3.1 2 ------- null}
+ -t 0.572011586621142 -s 2 -d 3 -p tcp -e 1040 -c 2 -i 3 -a 2 -x {1.0 3.1 2 ------- null}
- -t 0.572011586621142 -s 2 -d 3 -p tcp -e 1040 -c 2 -i 3 -a 2 -x {1.0 3.1 2 ------- null}
h -t 0.572011586621142 -s 2 -d 3 -p tcp -e 1040 -c 2 -i 3 -a 2 -x {1.0 3.1 -1 ------- null}
r -t 0.582011586621142 -s 2 -d 3 -p tcp -e 1040 -c 2 -i 2 -a 2 -x {1.0 3.1 1 ------- null}
+ -t 0.582011586621142 -s 3 -d 2 -p ack -e 40 -c 2 -i 4 -a 2 -x {3.1 1.0 1 ------- null}
- -t 0.582011586621142 -s 3 -d 2 -p ack -e 40 -c 2 -i 4 -a 2 -x {3.1 1.0 1 ------- null}
h -t 0.582011586621142 -s 3 -d 2 -p ack -e 40 -c 2 -i 4 -a 2 -x {3.1 1.0 -1 ------- null}
r -t 0.590331586621142 -s 2 -d 3 -p tcp -e 1040 -c 2 -i 3 -a 2 -x {1.0 3.1 2 ------- null}
+ -t 0.590331586621142 -s 3 -d 2 -p ack -e 40 -c 2 -i 5 -a 2 -x {3.1 1.0 2 ------- null}
- -t 0.590331586621142 -s 3 -d 2 -p ack -e 40 -c 2 -i 5 -a 2 -x {3.1 1.0 2 ------- null}
h -t 0.590331586621142 -s 3 -d 2 -p ack -e 40 -c 2 -i 5 -a 2 -x {3.1 1.0 -1 ------- null}
r -t 0.592331586621142 -s 3 -d 2 -p ack -e 40 -c 2 -i 4 -a 2 -x {3.1 1.0 1 ------- null}
+ -t 0.592331586621142 -s 2 -d 1 -p ack -e 40 -c 2 -i 4 -a 2 -x {3.1 1.0 1 ------- null}
- -t 0.592331586621142 -s 2 -d 1 -p ack -e 40 -c 2 -i 4 -a 2 -x {3.1 1.0 1 ------- null}
h -t 0.592331586621142 -s 2 -d 1 -p ack -e 40 -c 2 -i 4 -a 2 -x {3.1 1.0 -1 ------- null}
r -t 0.600651586621142 -s 3 -d 2 -p ack -e 40 -c 2 -i 5 -a 2 -x {3.1 1.0 2 ------- null}
+ -t 0.600651586621142 -s 2 -d 1 -p ack -e 40 -c 2 -i 5 -a 2 -x {3.1 1.0 2 ------- null}
- -t 0.600651586621142 -s 2 -d 1 -p ack -e 40 -c 2 -i 5 -a 2 -x {3.1 1.0 2 ------- null}
h -t 0.600651586621142 -s 2 -d 1 -p ack -e 40 -c 2 -i 5 -a 2 -x {3.1 1.0 -1 ------- null}
r -t 0.602651586621142 -s 2 -d 1 -p ack -e 40 -c 2 -i 4 -a 2 -x {3.1 1.0 1 ------- null}
+ -t 0.602651586621142 -s 1 -d 2 -p tcp -e 1040 -c 2 -i 6 -a 2 -x {1.0 3.1 3 ------- null}
- -t 0.602651586621142 -s 1 -d 2 -p tcp -e 1040 -c 2 -i 6 -a 2 -x {1.0 3.1 3 ------- null}
h -t 0.602651586621142 -s 1 -d 2 -p tcp -e 1040 -c 2 -i 6 -a 2 -x {1.0 3.1 -1 ------- null}
+ -t 0.602651586621142 -s 1 -d 2 -p tcp -e 1040 -c 2 -i 7 -a 2 -x {1.0 3.1 4 ------- null}
r -t 0.610971586621142 -s 2 -d 1 -p ack -e 40 -c 2 -i 5 -a 2 -x {3.1 1.0 2 ------- null}
+ -t 0.610971586621142 -s 1 -d 2 -p tcp -e 1040 -c 2 -i 8 -a 2 -x {1.0 3.1 5 ------- null}
+ -t 0.610971586621142 -s 1 -d 2 -p tcp -e 1040 -c 2 -i 9 -a 2 -x {1.0 3.1 6 ------- null}
- -t 0.610971586621142 -s 1 -d 2 -p tcp -e 1040 -c 2 -i 7 -a 2 -x {1.0 3.1 4 ------- null}
h -t 0.610971586621142 -s 1 -d 2 -p tcp -e 1040 -c 2 -i 7 -a 2 -x {1.0 3.1 -1 ------- null}
- -t 0.619291586621142 -s 1 -d 2 -p tcp -e 1040 -c 2 -i 8 -a 2 -x {1.0 3.1 5 ------- null}
h -t 0.619291586621142 -s 1 -d 2 -p tcp -e 1040 -c 2 -i 8 -a 2 -x {1.0 3.1 -1 ------- null}
r -t 0.620971586621142 -s 1 -d 2 -p tcp -e 1040 -c 2 -i 6 -a 2 -x {1.0 3.1 3 ------- null}
+ -t 0.620971586621142 -s 2 -d 3 -p tcp -e 1040 -c 2 -i 6 -a 2 -x {1.0 3.1 3 ------- null}
- -t 0.620971586621142 -s 2 -d 3 -p tcp -e 1040 -c 2 -i 6 -a 2 -x {1.0 3.1 3 ------- null}
h -t 0.620971586621142 -s 2 -d 3 -p tcp -e 1040 -c 2 -i 6 -a 2 -x {1.0 3.1 -1 ------- null}
- -t 0.627611586621142 -s 1 -d 2 -p tcp -e 1040 -c 2 -i 9 -a 2 -x {1.0 3.1 6 ------- null}
h -t 0.627611586621142 -s 1 -d 2 -p tcp -e 1040 -c 2 -i 9 -a 2 -x {1.0 3.1 -1 ------- null}
r -t 0.629291586621142 -s 1 -d 2 -p tcp -e 1040 -c 2 -i 7 -a 2 -x {1.0 3.1 4 ------- null}
+ -t 0.629291586621142 -s 2 -d 3 -p tcp -e 1040 -c 2 -i 7 -a 2 -x {1.0 3.1 4 ------- null}
- -t 0.629291586621142 -s 2 -d 3 -p tcp -e 1040 -c 2 -i 7 -a 2 -x {1.0 3.1 4 ------- null}
h -t 0.629291586621142 -s 2 -d 3 -p tcp -e 1040 -c 2 -i 7 -a 2 -x {1.0 3.1 -1 ------- null}
r -t 0.637611586621142 -s 1 -d 2 -p tcp -e 1040 -c 2 -i 8 -a 2 -x {1.0 3.1 5 ------- null}
+ -t 0.637611586621142 -s 2 -d 3 -p tcp -e 1040 -c 2 -i 8 -a 2 -x {1.0 3.1 5 ------- null}
- -t 0.637611586621142 -s 2 -d 3 -p tcp -e 1040 -c 2 -i 8 -a 2 -x {1.0 3.1 5 ------- null}
h -t 0.637611586621142 -s 2 -d 3 -p tcp -e 1040 -c 2 -i 8 -a 2 -x {1.0 3.1 -1 ------- null}
r -t 0.639291586621142 -s 2 -d 3 -p tcp -e 1040 -c 2 -i 6 -a 2 -x {1.0 3.1 3 ------- null}
+ -t 0.639291586621142 -s 3 -d 2 -p ack -e 40 -c 2 -i 10 -a 2 -x {3.1 1.0 3 ------- null}
- -t 0.639291586621142 -s 3 -d 2 -p ack -e 40 -c 2 -i 10 -a 2 -x {3.1 1.0 3 ------- null}
h -t 0.639291586621142 -s 3 -d 2 -p ack -e 40 -c 2 -i 10 -a 2 -x {3.1 1.0 -1 ------- null}
r -t 0.645931586621142 -s 1 -d 2 -p tcp -e 1040 -c 2 -i 9 -a 2 -x {1.0 3.1 6 ------- null}
+ -t 0.645931586621142 -s 2 -d 3 -p tcp -e 1040 -c 2 -i 9 -a 2 -x {1.0 3.1 6 ------- null}
- -t 0.645931586621142 -s 2 -d 3 -p tcp -e 1040 -c 2 -i 9 -a 2 -x {1.0 3.1 6 ------- null}
h -t 0.645931586621142 -s 2 -d 3 -p tcp -e 1040 -c 2 -i 9 -a 2 -x {1.0 3.1 -1 ------- null}
r -t 0.647611586621142 -s 2 -d 3 -p tcp -e 1040 -c 2 -i 7 -a 2 -x {1.0 3.1 4 ------- null}
+ -t 0.647611586621142 -s 3 -d 2 -p ack -e 40 -c 2 -i 11 -a 2 -x {3.1 1.0 4 ------- null}
- -t 0.647611586621142 -s 3 -d 2 -p ack -e 40 -c 2 -i 11 -a 2 -x {3.1 1.0 4 ------- null}
h -t 0.647611586621142 -s 3 -d 2 -p ack -e 40 -c 2 -i 11 -a 2 -x {3.1 1.0 -1 ------- null}
r -t 0.649611586621142 -s 3 -d 2 -p ack -e 40 -c 2 -i 10 -a 2 -x {3.1 1.0 3 ------- null}
+ -t 0.649611586621142 -s 2 -d 1 -p ack -e 40 -c 2 -i 10 -a 2 -x {3.1 1.0 3 ------- null}
- -t 0.649611586621142 -s 2 -d 1 -p ack -e 40 -c 2 -i 10 -a 2 -x {3.1 1.0 3 ------- null}
h -t 0.649611586621142 -s 2 -d 1 -p ack -e 40 -c 2 -i 10 -a 2 -x {3.1 1.0 -1 ------- null}
r -t 0.655931586621142 -s 2 -d 3 -p tcp -e 1040 -c 2 -i 8 -a 2 -x {1.0 3.1 5 ------- null}
+ -t 0.655931586621142 -s 3 -d 2 -p ack -e 40 -c 2 -i 12 -a 2 -x {3.1 1.0 5 ------- null}
- -t 0.655931586621142 -s 3 -d 2 -p ack -e 40 -c 2 -i 12 -a 2 -x {3.1 1.0 5 ------- null}
h -t 0.655931586621142 -s 3 -d 2 -p ack -e 40 -c 2 -i 12 -a 2 -x {3.1 1.0 -1 ------- null}
r -t 0.657931586621142 -s 3 -d 2 -p ack -e 40 -c 2 -i 11 -a 2 -x {3.1 1.0 4 ------- null}
+ -t 0.657931586621142 -s 2 -d 1 -p ack -e 40 -c 2 -i 11 -a 2 -x {3.1 1.0 4 ------- null}
- -t 0.657931586621142 -s 2 -d 1 -p ack -e 40 -c 2 -i 11 -a 2 -x {3.1 1.0 4 ------- null}
h -t 0.657931586621142 -s 2 -d 1 -p ack -e 40 -c 2 -i 11 -a 2 -x {3.1 1.0 -1 ------- null}
r -t 0.659931586621142 -s 2 -d 1 -p ack -e 40 -c 2 -i 10 -a 2 -x {3.1 1.0 3 ------- null}
+ -t 0.659931586621142 -s 1 -d 2 -p tcp -e 1040 -c 2 -i 13 -a 2 -x {1.0 3.1 7 ------- null}
- -t 0.659931586621142 -s 1 -d 2 -p tcp -e 1040 -c 2 -i 13 -a 2 -x {1.0 3.1 7 ------- null}
h -t 0.659931586621142 -s 1 -d 2 -p tcp -e 1040 -c 2 -i 13 -a 2 -x {1.0 3.1 -1 ------- null}
+ -t 0.659931586621142 -s 1 -d 2 -p tcp -e 1040 -c 2 -i 14 -a 2 -x {1.0 3.1 8 ------- null}
r -t 0.664251586621142 -s 2 -d 3 -p tcp -e 1040 -c 2 -i 9 -a 2 -x {1.0 3.1 6 ------- null}
+ -t 0.664251586621142 -s 3 -d 2 -p ack -e 40 -c 2 -i 15 -a 2 -x {3.1 1.0 6 ------- null}
- -t 0.664251586621142 -s 3 -d 2 -p ack -e 40 -c 2 -i 15 -a 2 -x {3.1 1.0 6 ------- null}
h -t 0.664251586621142 -s 3 -d 2 -p ack -e 40 -c 2 -i 15 -a 2 -x {3.1 1.0 -1 ------- null}
r -t 0.666251586621142 -s 3 -d 2 -p ack -e 40 -c 2 -i 12 -a 2 -x {3.1 1.0 5 ------- null}
+ -t 0.666251586621142 -s 2 -d 1 -p ack -e 40 -c 2 -i 12 -a 2 -x {3.1 1.0 5 ------- null}
- -t 0.666251586621142 -s 2 -d 1 -p ack -e 40 -c 2 -i 12 -a 2 -x {3.1 1.0 5 ------- null}
h -t 0.666251586621142 -s 2 -d 1 -p ack -e 40 -c 2 -i 12 -a 2 -x {3.1 1.0 -1 ------- null}
r -t 0.668251586621142 -s 2 -d 1 -p ack -e 40 -c 2 -i 11 -a 2 -x {3.1 1.0 4 ------- null}
+ -t 0.668251586621142 -s 1 -d 2 -p tcp -e 1040 -c 2 -i 16 -a 2 -x {1.0 3.1 9 ------- null}
+ -t 0.668251586621142 -s 1 -d 2 -p tcp -e 1040 -c 2 -i 17 -a 2 -x {1.0 3.1 10 ------- null}
- -t 0.668251586621142 -s 1 -d 2 -p tcp -e 1040 -c 2 -i 14 -a 2 -x {1.0 3.1 8 ------- null}
h -t 0.668251586621142 -s 1 -d 2 -p tcp -e 1040 -c 2 -i 14 -a 2 -x {1.0 3.1 -1 ------- null}
r -t 0.674571586621142 -s 3 -d 2 -p ack -e 40 -c 2 -i 15 -a 2 -x {3.1 1.0 6 ------- null}
+ -t 0.674571586621142 -s 2 -d 1 -p ack -e 40 -c 2 -i 15 -a 2 -x {3.1 1.0 6 ------- null}
- -t 0.674571586621142 -s 2 -d 1 -p ack -e 40 -c 2 -i 15 -a 2 -x {3.1 1.0 6 ------- null}
h -t 0.674571586621142 -s 2 -d 1 -p ack -e 40 -c 2 -i 15 -a 2 -x {3.1 1.0 -1 ------- null}
r -t 0.676571586621142 -s 2 -d 1 -p ack -e 40 -c 2 -i 12 -a 2 -x {3.1 1.0 5 ------- null}
+ -t 0.676571586621142 -s 1 -d 2 -p tcp -e 1040 -c 2 -i 18 -a 2 -x {1.0 3.1 11 ------- null}
+ -t 0.676571586621142 -s 1 -d 2 -p tcp -e 1040 -c 2 -i 19 -a 2 -x {1.0 3.1 12 ------- null}
- -t 0.676571586621142 -s 1 -d 2 -p tcp -e 1040 -c 2 -i 16 -a 2 -x {1.0 3.1 9 ------- null}
h -t 0.676571586621142 -s 1 -d 2 -p tcp -e 1040 -c 2 -i 16 -a 2 -x {1.0 3.1 -1 ------- null}
r -t 0.678251586621142 -s 1 -d 2 -p tcp -e 1040 -c 2 -i 13 -a 2 -x {1.0 3.1 7 ------- null}
+ -t 0.678251586621142 -s 2 -d 3 -p tcp -e 1040 -c 2 -i 13 -a 2 -x {1.0 3.1 7 ------- null}
- -t 0.678251586621142 -s 2 -d 3 -p tcp -e 1040 -c 2 -i 13 -a 2 -x {1.0 3.1 7 ------- null}
h -t 0.678251586621142 -s 2 -d 3 -p tcp -e 1040 -c 2 -i 13 -a 2 -x {1.0 3.1 -1 ------- null}
r -t 0.684891586621142 -s 2 -d 1 -p ack -e 40 -c 2 -i 15 -a 2 -x {3.1 1.0 6 ------- null}
+ -t 0.684891586621142 -s 1 -d 2 -p tcp -e 1040 -c 2 -i 20 -a 2 -x {1.0 3.1 13 ------- null}
+ -t 0.684891586621142 -s 1 -d 2 -p tcp -e 1040 -c 2 -i 21 -a 2 -x {1.0 3.1 14 ------- null}
- -t 0.684891586621142 -s 1 -d 2 -p tcp -e 1040 -c 2 -i 17 -a 2 -x {1.0 3.1 10 ------- null}
h -t 0.684891586621142 -s 1 -d 2 -p tcp -e 1040 -c 2 -i 17 -a 2 -x {1.0 3.1 -1 ------- null}
r -t 0.686571586621142 -s 1 -d 2 -p tcp -e 1040 -c 2 -i 14 -a 2 -x {1.0 3.1 8 ------- null}
+ -t 0.686571586621142 -s 2 -d 3 -p tcp -e 1040 -c 2 -i 14 -a 2 -x {1.0 3.1 8 ------- null}
- -t 0.686571586621142 -s 2 -d 3 -p tcp -e 1040 -c 2 -i 14 -a 2 -x {1.0 3.1 8 ------- null}
h -t 0.686571586621142 -s 2 -d 3 -p tcp -e 1040 -c 2 -i 14 -a 2 -x {1.0 3.1 -1 ------- null}
- -t 0.693211586621142 -s 1 -d 2 -p tcp -e 1040 -c 2 -i 18 -a 2 -x {1.0 3.1 11 ------- null}
h -t 0.693211586621142 -s 1 -d 2 -p tcp -e 1040 -c 2 -i 18 -a 2 -x {1.0 3.1 -1 ------- null}
r -t 0.694891586621142 -s 1 -d 2 -p tcp -e 1040 -c 2 -i 16 -a 2 -x {1.0 3.1 9 ------- null}
+ -t 0.694891586621142 -s 2 -d 3 -p tcp -e 1040 -c 2 -i 16 -a 2 -x {1.0 3.1 9 ------- null}
- -t 0.694891586621142 -s 2 -d 3 -p tcp -e 1040 -c 2 -i 16 -a 2 -x {1.0 3.1 9 ------- null}
h -t 0.694891586621142 -s 2 -d 3 -p tcp -e 1040 -c 2 -i 16 -a 2 -x {1.0 3.1 -1 ------- null}
r -t 0.696571586621142 -s 2 -d 3 -p tcp -e 1040 -c 2 -i 13 -a 2 -x {1.0 3.1 7 ------- null}
+ -t 0.696571586621142 -s 3 -d 2 -p ack -e 40 -c 2 -i 22 -a 2 -x {3.1 1.0 7 ------- null}
- -t 0.696571586621142 -s 3 -d 2 -p ack -e 40 -c 2 -i 22 -a 2 -x {3.1 1.0 7 ------- null}
h -t 0.696571586621142 -s 3 -d 2 -p ack -e 40 -c 2 -i 22 -a 2 -x {3.1 1.0 -1 ------- null}
- -t 0.701531586621142 -s 1 -d 2 -p tcp -e 1040 -c 2 -i 19 -a 2 -x {1.0 3.1 12 ------- null}
h -t 0.701531586621142 -s 1 -d 2 -p tcp -e 1040 -c 2 -i 19 -a 2 -x {1.0 3.1 -1 ------- null}
r -t 0.703211586621142 -s 1 -d 2 -p tcp -e 1040 -c 2 -i 17 -a 2 -x {1.0 3.1 10 ------- null}
+ -t 0.703211586621142 -s 2 -d 3 -p tcp -e 1040 -c 2 -i 17 -a 2 -x {1.0 3.1 10 ------- null}
- -t 0.703211586621142 -s 2 -d 3 -p tcp -e 1040 -c 2 -i 17 -a 2 -x {1.0 3.1 10 ------- null}
h -t 0.703211586621142 -s 2 -d 3 -p tcp -e 1040 -c 2 -i 17 -a 2 -x {1.0 3.1 -1 ------- null}
r -t 0.704891586621142 -s 2 -d 3 -p tcp -e 1040 -c 2 -i 14 -a 2 -x {1.0 3.1 8 ------- null}
+ -t 0.704891586621142 -s 3 -d 2 -p ack -e 40 -c 2 -i 23 -a 2 -x {3.1 1.0 8 ------- null}
- -t 0.704891586621142 -s 3 -d 2 -p ack -e 40 -c 2 -i 23 -a 2 -x {3.1 1.0 8 ------- null}
h -t 0.704891586621142 -s 3 -d 2 -p ack -e 40 -c 2 -i 23 -a 2 -x {3.1 1.0 -1 ------- null}
r -t 0.706891586621142 -s 3 -d 2 -p ack -e 40 -c 2 -i 22 -a 2 -x {3.1 1.0 7 ------- null}
+ -t 0.706891586621142 -s 2 -d 1 -p ack -e 40 -c 2 -i 22 -a 2 -x {3.1 1.0 7 ------- null}
- -t 0.706891586621142 -s 2 -d 1 -p ack -e 40 -c 2 -i 22 -a 2 -x {3.1 1.0 7 ------- null}
h -t 0.706891586621142 -s 2 -d 1 -p ack -e 40 -c 2 -i 22 -a 2 -x {3.1 1.0 -1 ------- null}
- -t 0.709851586621142 -s 1 -d 2 -p tcp -e 1040 -c 2 -i 20 -a 2 -x {1.0 3.1 13 ------- null}
h -t 0.709851586621142 -s 1 -d 2 -p tcp -e 1040 -c 2 -i 20 -a 2 -x {1.0 3.1 -1 ------- null}
r -t 0.711531586621142 -s 1 -d 2 -p tcp -e 1040 -c 2 -i 18 -a 2 -x {1.0 3.1 11 ------- null}
+ -t 0.711531586621142 -s 2 -d 3 -p tcp -e 1040 -c 2 -i 18 -a 2 -x {1.0 3.1 11 ------- null}
- -t 0.711531586621142 -s 2 -d 3 -p tcp -e 1040 -c 2 -i 18 -a 2 -x {1.0 3.1 11 ------- null}
h -t 0.711531586621142 -s 2 -d 3 -p tcp -e 1040 -c 2 -i 18 -a 2 -x {1.0 3.1 -1 ------- null}
r -t 0.713211586621142 -s 2 -d 3 -p tcp -e 1040 -c 2 -i 16 -a 2 -x {1.0 3.1 9 ------- null}
+ -t 0.713211586621142 -s 3 -d 2 -p ack -e 40 -c 2 -i 24 -a 2 -x {3.1 1.0 9 ------- null}
- -t 0.713211586621142 -s 3 -d 2 -p ack -e 40 -c 2 -i 24 -a 2 -x {3.1 1.0 9 ------- null}
h -t 0.713211586621142 -s 3 -d 2 -p ack -e 40 -c 2 -i 24 -a 2 -x {3.1 1.0 -1 ------- null}
r -t 0.715211586621142 -s 3 -d 2 -p ack -e 40 -c 2 -i 23 -a 2 -x {3.1 1.0 8 ------- null}
+ -t 0.715211586621142 -s 2 -d 1 -p ack -e 40 -c 2 -i 23 -a 2 -x {3.1 1.0 8 ------- null}
- -t 0.715211586621142 -s 2 -d 1 -p ack -e 40 -c 2 -i 23 -a 2 -x {3.1 1.0 8 ------- null}
h -t 0.715211586621142 -s 2 -d 1 -p ack -e 40 -c 2 -i 23 -a 2 -x {3.1 1.0 -1 ------- null}
r -t 0.717211586621142 -s 2 -d 1 -p ack -e 40 -c 2 -i 22 -a 2 -x {3.1 1.0 7 ------- null}
+ -t 0.717211586621142 -s 1 -d 2 -p tcp -e 1040 -c 2 -i 25 -a 2 -x {1.0 3.1 15 ------- null}
+ -t 0.717211586621142 -s 1 -d 2 -p tcp -e 1040 -c 2 -i 26 -a 2 -x {1.0 3.1 16 ------- null}
- -t 0.718171586621142 -s 1 -d 2 -p tcp -e 1040 -c 2 -i 21 -a 2 -x {1.0 3.1 14 ------- null}
h -t 0.718171586621142 -s 1 -d 2 -p tcp -e 1040 -c 2 -i 21 -a 2 -x {1.0 3.1 -1 ------- null}
r -t 0.719851586621142 -s 1 -d 2 -p tcp -e 1040 -c 2 -i 19 -a 2 -x {1.0 3.1 12 ------- null}
+ -t 0.719851586621142 -s 2 -d 3 -p tcp -e 1040 -c 2 -i 19 -a 2 -x {1.0 3.1 12 ------- null}
- -t 0.719851586621142 -s 2 -d 3 -p tcp -e 1040 -c 2 -i 19 -a 2 -x {1.0 3.1 12 ------- null}
h -t 0.719851586621142 -s 2 -d 3 -p tcp -e 1040 -c 2 -i 19 -a 2 -x {1.0 3.1 -1 ------- null}
r -t 0.721531586621142 -s 2 -d 3 -p tcp -e 1040 -c 2 -i 17 -a 2 -x {1.0 3.1 10 ------- null}
+ -t 0.721531586621142 -s 3 -d 2 -p ack -e 40 -c 2 -i 27 -a 2 -x {3.1 1.0 10 ------- null}
- -t 0.721531586621142 -s 3 -d 2 -p ack -e 40 -c 2 -i 27 -a 2 -x {3.1 1.0 10 ------- null}
h -t 0.721531586621142 -s 3 -d 2 -p ack -e 40 -c 2 -i 27 -a 2 -x {3.1 1.0 -1 ------- null}
r -t 0.723531586621142 -s 3 -d 2 -p ack -e 40 -c 2 -i 24 -a 2 -x {3.1 1.0 9 ------- null}
+ -t 0.723531586621142 -s 2 -d 1 -p ack -e 40 -c 2 -i 24 -a 2 -x {3.1 1.0 9 ------- null}
- -t 0.723531586621142 -s 2 -d 1 -p ack -e 40 -c 2 -i 24 -a 2 -x {3.1 1.0 9 ------- null}
h -t 0.723531586621142 -s 2 -d 1 -p ack -e 40 -c 2 -i 24 -a 2 -x {3.1 1.0 -1 ------- null}
r -t 0.725531586621142 -s 2 -d 1 -p ack -e 40 -c 2 -i 23 -a 2 -x {3.1 1.0 8 ------- null}
+ -t 0.725531586621142 -s 1 -d 2 -p tcp -e 1040 -c 2 -i 28 -a 2 -x {1.0 3.1 17 ------- null}
+ -t 0.725531586621142 -s 1 -d 2 -p tcp -e 1040 -c 2 -i 29 -a 2 -x {1.0 3.1 18 ------- null}
- -t 0.726491586621142 -s 1 -d 2 -p tcp -e 1040 -c 2 -i 25 -a 2 -x {1.0 3.1 15 ------- null}
h -t 0.726491586621142 -s 1 -d 2 -p tcp -e 1040 -c 2 -i 25 -a 2 -x {1.0 3.1 -1 ------- null}
r -t 0.728171586621142 -s 1 -d 2 -p tcp -e 1040 -c 2 -i 20 -a 2 -x {1.0 3.1 13 ------- null}
+ -t 0.728171586621142 -s 2 -d 3 -p tcp -e 1040 -c 2 -i 20 -a 2 -x {1.0 3.1 13 ------- null}
- -t 0.728171586621142 -s 2 -d 3 -p tcp -e 1040 -c 2 -i 20 -a 2 -x {1.0 3.1 13 ------- null}
h -t 0.728171586621142 -s 2 -d 3 -p tcp -e 1040 -c 2 -i 20 -a 2 -x {1.0 3.1 -1 ------- null}
r -t 0.729851586621142 -s 2 -d 3 -p tcp -e 1040 -c 2 -i 18 -a 2 -x {1.0 3.1 11 ------- null}
+ -t 0.729851586621142 -s 3 -d 2 -p ack -e 40 -c 2 -i 30 -a 2 -x {3.1 1.0 11 ------- null}
- -t 0.729851586621142 -s 3 -d 2 -p ack -e 40 -c 2 -i 30 -a 2 -x {3.1 1.0 11 ------- null}
h -t 0.729851586621142 -s 3 -d 2 -p ack -e 40 -c 2 -i 30 -a 2 -x {3.1 1.0 -1 ------- null}
r -t 0.731851586621142 -s 3 -d 2 -p ack -e 40 -c 2 -i 27 -a 2 -x {3.1 1.0 10 ------- null}
+ -t 0.731851586621142 -s 2 -d 1 -p ack -e 40 -c 2 -i 27 -a 2 -x {3.1 1.0 10 ------- null}
- -t 0.731851586621142 -s 2 -d 1 -p ack -e 40 -c 2 -i 27 -a 2 -x {3.1 1.0 10 ------- null}
h -t 0.731851586621142 -s 2 -d 1 -p ack -e 40 -c 2 -i 27 -a 2 -x {3.1 1.0 -1 ------- null}
r -t 0.733851586621142 -s 2 -d 1 -p ack -e 40 -c 2 -i 24 -a 2 -x {3.1 1.0 9 ------- null}
+ -t 0.733851586621142 -s 1 -d 2 -p tcp -e 1040 -c 2 -i 31 -a 2 -x {1.0 3.1 19 ------- null}
+ -t 0.733851586621142 -s 1 -d 2 -p tcp -e 1040 -c 2 -i 32 -a 2 -x {1.0 3.1 20 ------- null}
- -t 0.734811586621142 -s 1 -d 2 -p tcp -e 1040 -c 2 -i 26 -a 2 -x {1.0 3.1 16 ------- null}
h -t 0.734811586621142 -s 1 -d 2 -p tcp -e 1040 -c 2 -i 26 -a 2 -x {1.0 3.1 -1 ------- null}
r -t 0.736491586621142 -s 1 -d 2 -p tcp -e 1040 -c 2 -i 21 -a 2 -x {1.0 3.1 14 ------- null}
+ -t 0.736491586621142 -s 2 -d 3 -p tcp -e 1040 -c 2 -i 21 -a 2 -x {1.0 3.1 14 ------- null}
- -t 0.736491586621142 -s 2 -d 3 -p tcp -e 1040 -c 2 -i 21 -a 2 -x {1.0 3.1 14 ------- null}
h -t 0.736491586621142 -s 2 -d 3 -p tcp -e 1040 -c 2 -i 21 -a 2 -x {1.0 3.1 -1 ------- null}
r -t 0.738171586621142 -s 2 -d 3 -p tcp -e 1040 -c 2 -i 19 -a 2 -x {1.0 3.1 12 ------- null}
+ -t 0.738171586621142 -s 3 -d 2 -p ack -e 40 -c 2 -i 33 -a 2 -x {3.1 1.0 12 ------- null}
- -t 0.738171586621142 -s 3 -d 2 -p ack -e 40 -c 2 -i 33 -a 2 -x {3.1 1.0 12 ------- null}
h -t 0.738171586621142 -s 3 -d 2 -p ack -e 40 -c 2 -i 33 -a 2 -x {3.1 1.0 -1 ------- null}
r -t 0.740171586621142 -s 3 -d 2 -p ack -e 40 -c 2 -i 30 -a 2 -x {3.1 1.0 11 ------- null}
+ -t 0.740171586621142 -s 2 -d 1 -p ack -e 40 -c 2 -i 30 -a 2 -x {3.1 1.0 11 ------- null}
- -t 0.740171586621142 -s 2 -d 1 -p ack -e 40 -c 2 -i 30 -a 2 -x {3.1 1.0 11 ------- null}
h -t 0.740171586621142 -s 2 -d 1 -p ack -e 40 -c 2 -i 30 -a 2 -x {3.1 1.0 -1 ------- null}
r -t 0.742171586621142 -s 2 -d 1 -p ack -e 40 -c 2 -i 27 -a 2 -x {3.1 1.0 10 ------- null}
+ -t 0.742171586621142 -s 1 -d 2 -p tcp -e 1040 -c 2 -i 34 -a 2 -x {1.0 3.1 21 ------- null}
+ -t 0.742171586621142 -s 1 -d 2 -p tcp -e 1040 -c 2 -i 35 -a 2 -x {1.0 3.1 22 ------- null}
- -t 0.743131586621142 -s 1 -d 2 -p tcp -e 1040 -c 2 -i 28 -a 2 -x {1.0 3.1 17 ------- null}
h -t 0.743131586621142 -s 1 -d 2 -p tcp -e 1040 -c 2 -i 28 -a 2 -x {1.0 3.1 -1 ------- null}
r -t 0.744811586621142 -s 1 -d 2 -p tcp -e 1040 -c 2 -i 25 -a 2 -x {1.0 3.1 15 ------- null}
+ -t 0.744811586621142 -s 2 -d 3 -p tcp -e 1040 -c 2 -i 25 -a 2 -x {1.0 3.1 15 ------- null}
- -t 0.744811586621142 -s 2 -d 3 -p tcp -e 1040 -c 2 -i 25 -a 2 -x {1.0 3.1 15 ------- null}
h -t 0.744811586621142 -s 2 -d 3 -p tcp -e 1040 -c 2 -i 25 -a 2 -x {1.0 3.1 -1 ------- null}
r -t 0.746491586621142 -s 2 -d 3 -p tcp -e 1040 -c 2 -i 20 -a 2 -x {1.0 3.1 13 ------- null}
+ -t 0.746491586621142 -s 3 -d 2 -p ack -e 40 -c 2 -i 36 -a 2 -x {3.1 1.0 13 ------- null}
- -t 0.746491586621142 -s 3 -d 2 -p ack -e 40 -c 2 -i 36 -a 2 -x {3.1 1.0 13 ------- null}
h -t 0.746491586621142 -s 3 -d 2 -p ack -e 40 -c 2 -i 36 -a 2 -x {3.1 1.0 -1 ------- null}
r -t 0.748491586621142 -s 3 -d 2 -p ack -e 40 -c 2 -i 33 -a 2 -x {3.1 1.0 12 ------- null}
+ -t 0.748491586621142 -s 2 -d 1 -p ack -e 40 -c 2 -i 33 -a 2 -x {3.1 1.0 12 ------- null}
- -t 0.748491586621142 -s 2 -d 1 -p ack -e 40 -c 2 -i 33 -a 2 -x {3.1 1.0 12 ------- null}
h -t 0.748491586621142 -s 2 -d 1 -p ack -e 40 -c 2 -i 33 -a 2 -x {3.1 1.0 -1 ------- null}
r -t 0.750491586621142 -s 2 -d 1 -p ack -e 40 -c 2 -i 30 -a 2 -x {3.1 1.0 11 ------- null}
+ -t 0.750491586621142 -s 1 -d 2 -p tcp -e 1040 -c 2 -i 37 -a 2 -x {1.0 3.1 23 ------- null}
+ -t 0.750491586621142 -s 1 -d 2 -p tcp -e 1040 -c 2 -i 38 -a 2 -x {1.0 3.1 24 ------- null}
- -t 0.751451586621142 -s 1 -d 2 -p tcp -e 1040 -c 2 -i 29 -a 2 -x {1.0 3.1 18 ------- null}
h -t 0.751451586621142 -s 1 -d 2 -p tcp -e 1040 -c 2 -i 29 -a 2 -x {1.0 3.1 -1 ------- null}
r -t 0.753131586621142 -s 1 -d 2 -p tcp -e 1040 -c 2 -i 26 -a 2 -x {1.0 3.1 16 ------- null}
+ -t 0.753131586621142 -s 2 -d 3 -p tcp -e 1040 -c 2 -i 26 -a 2 -x {1.0 3.1 16 ------- null}
- -t 0.753131586621142 -s 2 -d 3 -p tcp -e 1040 -c 2 -i 26 -a 2 -x {1.0 3.1 16 ------- null}
h -t 0.753131586621142 -s 2 -d 3 -p tcp -e 1040 -c 2 -i 26 -a 2 -x {1.0 3.1 -1 ------- null}
r -t 0.754811586621142 -s 2 -d 3 -p tcp -e 1040 -c 2 -i 21 -a 2 -x {1.0 3.1 14 ------- null}
+ -t 0.754811586621142 -s 3 -d 2 -p ack -e 40 -c 2 -i 39 -a 2 -x {3.1 1.0 14 ------- null}
- -t 0.754811586621142 -s 3 -d 2 -p ack -e 40 -c 2 -i 39 -a 2 -x {3.1 1.0 14 ------- null}
h -t 0.754811586621142 -s 3 -d 2 -p ack -e 40 -c 2 -i 39 -a 2 -x {3.1 1.0 -1 ------- null}
r -t 0.756811586621142 -s 3 -d 2 -p ack -e 40 -c 2 -i 36 -a 2 -x {3.1 1.0 13 ------- null}
+ -t 0.756811586621142 -s 2 -d 1 -p ack -e 40 -c 2 -i 36 -a 2 -x {3.1 1.0 13 ------- null}
- -t 0.756811586621142 -s 2 -d 1 -p ack -e 40 -c 2 -i 36 -a 2 -x {3.1 1.0 13 ------- null}
h -t 0.756811586621142 -s 2 -d 1 -p ack -e 40 -c 2 -i 36 -a 2 -x {3.1 1.0 -1 ------- null}
r -t 0.758811586621142 -s 2 -d 1 -p ack -e 40 -c 2 -i 33 -a 2 -x {3.1 1.0 12 ------- null}
+ -t 0.758811586621142 -s 1 -d 2 -p tcp -e 1040 -c 2 -i 40 -a 2 -x {1.0 3.1 25 ------- null}
+ -t 0.758811586621142 -s 1 -d 2 -p tcp -e 1040 -c 2 -i 41 -a 2 -x {1.0 3.1 26 ------- null}
- -t 0.759771586621142 -s 1 -d 2 -p tcp -e 1040 -c 2 -i 31 -a 2 -x {1.0 3.1 19 ------- null}
h -t 0.759771586621142 -s 1 -d 2 -p tcp -e 1040 -c 2 -i 31 -a 2 -x {1.0 3.1 -1 ------- null}
r -t 0.761451586621142 -s 1 -d 2 -p tcp -e 1040 -c 2 -i 28 -a 2 -x {1.0 3.1 17 ------- null}
+ -t 0.761451586621142 -s 2 -d 3 -p tcp -e 1040 -c 2 -i 28 -a 2 -x {1.0 3.1 17 ------- null}
- -t 0.761451586621142 -s 2 -d 3 -p tcp -e 1040 -c 2 -i 28 -a 2 -x {1.0 3.1 17 ------- null}
h -t 0.761451586621142 -s 2 -d 3 -p tcp -e 1040 -c 2 -i 28 -a 2 -x {1.0 3.1 -1 ------- null}
r -t 0.763131586621142 -s 2 -d 3 -p tcp -e 1040 -c 2 -i 25 -a 2 -x {1.0 3.1 15 ------- null}
+ -t 0.763131586621142 -s 3 -d 2 -p ack -e 40 -c 2 -i 42 -a 2 -x {3.1 1.0 15 ------- null}
- -t 0.763131586621142 -s 3 -d 2 -p ack -e 40 -c 2 -i 42 -a 2 -x {3.1 1.0 15 ------- null}
h -t 0.763131586621142 -s 3 -d 2 -p ack -e 40 -c 2 -i 42 -a 2 -x {3.1 1.0 -1 ------- null}
r -t 0.765131586621142 -s 3 -d 2 -p ack -e 40 -c 2 -i 39 -a 2 -x {3.1 1.0 14 ------- null}
+ -t 0.765131586621142 -s 2 -d 1 -p ack -e 40 -c 2 -i 39 -a 2 -x {3.1 1.0 14 ------- null}
- -t 0.765131586621142 -s 2 -d 1 -p ack -e 40 -c 2 -i 39 -a 2 -x {3.1 1.0 14 ------- null}
h -t 0.765131586621142 -s 2 -d 1 -p ack -e 40 -c 2 -i 39 -a 2 -x {3.1 1.0 -1 ------- null}
r -t 0.767131586621142 -s 2 -d 1 -p ack -e 40 -c 2 -i 36 -a 2 -x {3.1 1.0 13 ------- null}
+ -t 0.767131586621142 -s 1 -d 2 -p tcp -e 1040 -c 2 -i 43 -a 2 -x {1.0 3.1 27 ------- null}
+ -t 0.767131586621142 -s 1 -d 2 -p tcp -e 1040 -c 2 -i 44 -a 2 -x {1.0 3.1 28 ------- null}
- -t 0.768091586621142 -s 1 -d 2 -p tcp -e 1040 -c 2 -i 32 -a 2 -x {1.0 3.1 20 ------- null}
h -t 0.768091586621142 -s 1 -d 2 -p tcp -e 1040 -c 2 -i 32 -a 2 -x {1.0 3.1 -1 ------- null}
r -t 0.769771586621142 -s 1 -d 2 -p tcp -e 1040 -c 2 -i 29 -a 2 -x {1.0 3.1 18 ------- null}
+ -t 0.769771586621142 -s 2 -d 3 -p tcp -e 1040 -c 2 -i 29 -a 2 -x {1.0 3.1 18 ------- null}
- -t 0.769771586621142 -s 2 -d 3 -p tcp -e 1040 -c 2 -i 29 -a 2 -x {1.0 3.1 18 ------- null}
h -t 0.769771586621142 -s 2 -d 3 -p tcp -e 1040 -c 2 -i 29 -a 2 -x {1.0 3.1 -1 ------- null}
r -t 0.771451586621142 -s 2 -d 3 -p tcp -e 1040 -c 2 -i 26 -a 2 -x {1.0 3.1 16 ------- null}
+ -t 0.771451586621142 -s 3 -d 2 -p ack -e 40 -c 2 -i 45 -a 2 -x {3.1 1.0 16 ------- null}
- -t 0.771451586621142 -s 3 -d 2 -p ack -e 40 -c 2 -i 45 -a 2 -x {3.1 1.0 16 ------- null}
h -t 0.771451586621142 -s 3 -d 2 -p ack -e 40 -c 2 -i 45 -a 2 -x {3.1 1.0 -1 ------- null}
r -t 0.773451586621142 -s 3 -d 2 -p ack -e 40 -c 2 -i 42 -a 2 -x {3.1 1.0 15 ------- null}
+ -t 0.773451586621142 -s 2 -d 1 -p ack -e 40 -c 2 -i 42 -a 2 -x {3.1 1.0 15 ------- null}
- -t 0.773451586621142 -s 2 -d 1 -p ack -e 40 -c 2 -i 42 -a 2 -x {3.1 1.0 15 ------- null}
h -t 0.773451586621142 -s 2 -d 1 -p ack -e 40 -c 2 -i 42 -a 2 -x {3.1 1.0 -1 ------- null}
r -t 0.775451586621142 -s 2 -d 1 -p ack -e 40 -c 2 -i 39 -a 2 -x {3.1 1.0 14 ------- null}
+ -t 0.775451586621142 -s 1 -d 2 -p tcp -e 1040 -c 2 -i 46 -a 2 -x {1.0 3.1 29 ------- null}
+ -t 0.775451586621142 -s 1 -d 2 -p tcp -e 1040 -c 2 -i 47 -a 2 -x {1.0 3.1 30 ------- null}
- -t 0.776411586621142 -s 1 -d 2 -p tcp -e 1040 -c 2 -i 34 -a 2 -x {1.0 3.1 21 ------- null}
h -t 0.776411586621142 -s 1 -d 2 -p tcp -e 1040 -c 2 -i 34 -a 2 -x {1.0 3.1 -1 ------- null}
r -t 0.778091586621142 -s 1 -d 2 -p tcp -e 1040 -c 2 -i 31 -a 2 -x {1.0 3.1 19 ------- null}
+ -t 0.778091586621142 -s 2 -d 3 -p tcp -e 1040 -c 2 -i 31 -a 2 -x {1.0 3.1 19 ------- null}
- -t 0.778091586621142 -s 2 -d 3 -p tcp -e 1040 -c 2 -i 31 -a 2 -x {1.0 3.1 19 ------- null}
h -t 0.778091586621142 -s 2 -d 3 -p tcp -e 1040 -c 2 -i 31 -a 2 -x {1.0 3.1 -1 ------- null}
r -t 0.779771586621142 -s 2 -d 3 -p tcp -e 1040 -c 2 -i 28 -a 2 -x {1.0 3.1 17 ------- null}
+ -t 0.779771586621142 -s 3 -d 2 -p ack -e 40 -c 2 -i 48 -a 2 -x {3.1 1.0 17 ------- null}
- -t 0.779771586621142 -s 3 -d 2 -p ack -e 40 -c 2 -i 48 -a 2 -x {3.1 1.0 17 ------- null}
h -t 0.779771586621142 -s 3 -d 2 -p ack -e 40 -c 2 -i 48 -a 2 -x {3.1 1.0 -1 ------- null}
r -t 0.781771586621142 -s 3 -d 2 -p ack -e 40 -c 2 -i 45 -a 2 -x {3.1 1.0 16 ------- null}
+ -t 0.781771586621142 -s 2 -d 1 -p ack -e 40 -c 2 -i 45 -a 2 -x {3.1 1.0 16 ------- null}
- -t 0.781771586621142 -s 2 -d 1 -p ack -e 40 -c 2 -i 45 -a 2 -x {3.1 1.0 16 ------- null}
h -t 0.781771586621142 -s 2 -d 1 -p ack -e 40 -c 2 -i 45 -a 2 -x {3.1 1.0 -1 ------- null}
r -t 0.783771586621142 -s 2 -d 1 -p ack -e 40 -c 2 -i 42 -a 2 -x {3.1 1.0 15 ------- null}
+ -t 0.783771586621142 -s 1 -d 2 -p tcp -e 1040 -c 2 -i 49 -a 2 -x {1.0 3.1 31 ------- null}
+ -t 0.783771586621142 -s 1 -d 2 -p tcp -e 1040 -c 2 -i 50 -a 2 -x {1.0 3.1 32 ------- null}
- -t 0.784731586621142 -s 1 -d 2 -p tcp -e 1040 -c 2 -i 35 -a 2 -x {1.0 3.1 22 ------- null}
h -t 0.784731586621142 -s 1 -d 2 -p tcp -e 1040 -c 2 -i 35 -a 2 -x {1.0 3.1 -1 ------- null}
r -t 0.786411586621142 -s 1 -d 2 -p tcp -e 1040 -c 2 -i 32 -a 2 -x {1.0 3.1 20 ------- null}
+ -t 0.786411586621142 -s 2 -d 3 -p tcp -e 1040 -c 2 -i 32 -a 2 -x {1.0 3.1 20 ------- null}
- -t 0.786411586621142 -s 2 -d 3 -p tcp -e 1040 -c 2 -i 32 -a 2 -x {1.0 3.1 20 ------- null}
h -t 0.786411586621142 -s 2 -d 3 -p tcp -e 1040 -c 2 -i 32 -a 2 -x {1.0 3.1 -1 ------- null}
r -t 0.788091586621142 -s 2 -d 3 -p tcp -e 1040 -c 2 -i 29 -a 2 -x {1.0 3.1 18 ------- null}
+ -t 0.788091586621142 -s 3 -d 2 -p ack -e 40 -c 2 -i 51 -a 2 -x {3.1 1.0 18 ------- null}
- -t 0.788091586621142 -s 3 -d 2 -p ack -e 40 -c 2 -i 51 -a 2 -x {3.1 1.0 18 ------- null}