+ 0.5 1 2 cbr 210 ------- 2 1.0 3.1 0 0
- 0.5 1 2 cbr 210 ------- 2 1.0 3.1 0 0
+ 0.505 1 2 cbr 210 ------- 2 1.0 3.1 1 1
- 0.505 1 2 cbr 210 ------- 2 1.0 3.1 1 1
+ 0.51 1 2 cbr 210 ------- 2 1.0 3.1 2 2
- 0.51 1 2 cbr 210 ------- 2 1.0 3.1 2 2
r 0.51168 1 2 cbr 210 ------- 2 1.0 3.1 0 0
+ 0.51168 2 3 cbr 210 ------- 2 1.0 3.1 0 0
- 0.51168 2 3 cbr 210 ------- 2 1.0 3.1 0 0
+ 0.515 1 2 cbr 210 ------- 2 1.0 3.1 3 3
- 0.515 1 2 cbr 210 ------- 2 1.0 3.1 3 3
r 0.51668 1 2 cbr 210 ------- 2 1.0 3.1 1 1
+ 0.51668 2 3 cbr 210 ------- 2 1.0 3.1 1 1
- 0.51668 2 3 cbr 210 ------- 2 1.0 3.1 1 1
+ 0.52 1 2 cbr 210 ------- 2 1.0 3.1 4 4
- 0.52 1 2 cbr 210 ------- 2 1.0 3.1 4 4
r 0.52168 1 2 cbr 210 ------- 2 1.0 3.1 2 2
+ 0.52168 2 3 cbr 210 ------- 2 1.0 3.1 2 2
- 0.52168 2 3 cbr 210 ------- 2 1.0 3.1 2 2
r 0.52336 2 3 cbr 210 ------- 2 1.0 3.1 0 0
+ 0.525 1 2 cbr 210 ------- 2 1.0 3.1 5 5
- 0.525 1 2 cbr 210 ------- 2 1.0 3.1 5 5
r 0.52668 1 2 cbr 210 ------- 2 1.0 3.1 3 3
+ 0.52668 2 3 cbr 210 ------- 2 1.0 3.1 3 3
- 0.52668 2 3 cbr 210 ------- 2 1.0 3.1 3 3
r 0.52836 2 3 cbr 210 ------- 2 1.0 3.1 1 1
+ 0.53 1 2 cbr 210 ------- 2 1.0 3.1 6 6
- 0.53 1 2 cbr 210 ------- 2 1.0 3.1 6 6
r 0.53168 1 2 cbr 210 ------- 2 1.0 3.1 4 4
+ 0.53168 2 3 cbr 210 ------- 2 1.0 3.1 4 4
- 0.53168 2 3 cbr 210 ------- 2 1.0 3.1 4 4
r 0.53336 2 3 cbr 210 ------- 2 1.0 3.1 2 2
+ 0.535 1 2 cbr 210 ------- 2 1.0 3.1 7 7
- 0.535 1 2 cbr 210 ------- 2 1.0 3.1 7 7
r 0.53668 1 2 cbr 210 ------- 2 1.0 3.1 5 5
+ 0.53668 2 3 cbr 210 ------- 2 1.0 3.1 5 5
- 0.53668 2 3 cbr 210 ------- 2 1.0 3.1 5 5
r 0.53836 2 3 cbr 210 ------- 2 1.0 3.1 3 3
+ 0.54 1 2 cbr 210 ------- 2 1.0 3.1 8 8
- 0.54 1 2 cbr 210 ------- 2 1.0 3.1 8 8
r 0.54168 1 2 cbr 210 ------- 2 1.0 3.1 6 6
+ 0.54168 2 3 cbr 210 ------- 2 1.0 3.1 6 6
- 0.54168 2 3 cbr 210 ------- 2 1.0 3.1 6 6
r 0.54336 2 3 cbr 210 ------- 2 1.0 3.1 4 4
+ 0.545 1 2 cbr 210 ------- 2 1.0 3.1 9 9
- 0.545 1 2 cbr 210 ------- 2 1.0 3.1 9 9
r 0.54668 1 2 cbr 210 ------- 2 1.0 3.1 7 7
+ 0.54668 2 3 cbr 210 ------- 2 1.0 3.1 7 7
- 0.54668 2 3 cbr 210 ------- 2 1.0 3.1 7 7
r 0.54836 2 3 cbr 210 ------- 2 1.0 3.1 5 5
+ 0.55 1 2 cbr 210 ------- 2 1.0 3.1 10 10
- 0.55 1 2 cbr 210 ------- 2 1.0 3.1 10 10
r 0.55168 1 2 cbr 210 ------- 2 1.0 3.1 8 8
+ 0.55168 2 3 cbr 210 ------- 2 1.0 3.1 8 8
- 0.55168 2 3 cbr 210 ------- 2 1.0 3.1 8 8
r 0.55336 2 3 cbr 210 ------- 2 1.0 3.1 6 6
+ 0.555 1 2 cbr 210 ------- 2 1.0 3.1 11 11
- 0.555 1 2 cbr 210 ------- 2 1.0 3.1 11 11
r 0.55668 1 2 cbr 210 ------- 2 1.0 3.1 9 9
+ 0.55668 2 3 cbr 210 ------- 2 1.0 3.1 9 9
- 0.55668 2 3 cbr 210 ------- 2 1.0 3.1 9 9
r 0.55836 2 3 cbr 210 ------- 2 1.0 3.1 7 7
+ 0.56 1 2 cbr 210 ------- 2 1.0 3.1 12 12
- 0.56 1 2 cbr 210 ------- 2 1.0 3.1 12 12
r 0.56168 1 2 cbr 210 ------- 2 1.0 3.1 10 10
+ 0.56168 2 3 cbr 210 ------- 2 1.0 3.1 10 10
- 0.56168 2 3 cbr 210 ------- 2 1.0 3.1 10 10
r 0.56336 2 3 cbr 210 ------- 2 1.0 3.1 8 8
+ 0.565 1 2 cbr 210 ------- 2 1.0 3.1 13 13
- 0.565 1 2 cbr 210 ------- 2 1.0 3.1 13 13
r 0.56668 1 2 cbr 210 ------- 2 1.0 3.1 11 11
+ 0.56668 2 3 cbr 210 ------- 2 1.0 3.1 11 11
- 0.56668 2 3 cbr 210 ------- 2 1.0 3.1 11 11
r 0.56836 2 3 cbr 210 ------- 2 1.0 3.1 9 9
+ 0.57 1 2 cbr 210 ------- 2 1.0 3.1 14 14
- 0.57 1 2 cbr 210 ------- 2 1.0 3.1 14 14
r 0.57168 1 2 cbr 210 ------- 2 1.0 3.1 12 12
+ 0.57168 2 3 cbr 210 ------- 2 1.0 3.1 12 12
- 0.57168 2 3 cbr 210 ------- 2 1.0 3.1 12 12
r 0.57336 2 3 cbr 210 ------- 2 1.0 3.1 10 10
+ 0.575 1 2 cbr 210 ------- 2 1.0 3.1 15 15
- 0.575 1 2 cbr 210 ------- 2 1.0 3.1 15 15
r 0.57668 1 2 cbr 210 ------- 2 1.0 3.1 13 13
+ 0.57668 2 3 cbr 210 ------- 2 1.0 3.1 13 13
- 0.57668 2 3 cbr 210 ------- 2 1.0 3.1 13 13
r 0.57836 2 3 cbr 210 ------- 2 1.0 3.1 11 11
+ 0.58 1 2 cbr 210 ------- 2 1.0 3.1 16 16
- 0.58 1 2 cbr 210 ------- 2 1.0 3.1 16 16
r 0.58168 1 2 cbr 210 ------- 2 1.0 3.1 14 14
+ 0.58168 2 3 cbr 210 ------- 2 1.0 3.1 14 14
- 0.58168 2 3 cbr 210 ------- 2 1.0 3.1 14 14
r 0.58336 2 3 cbr 210 ------- 2 1.0 3.1 12 12
+ 0.585 1 2 cbr 210 ------- 2 1.0 3.1 17 17
- 0.585 1 2 cbr 210 ------- 2 1.0 3.1 17 17
r 0.58668 1 2 cbr 210 ------- 2 1.0 3.1 15 15
+ 0.58668 2 3 cbr 210 ------- 2 1.0 3.1 15 15
- 0.58668 2 3 cbr 210 ------- 2 1.0 3.1 15 15
r 0.58836 2 3 cbr 210 ------- 2 1.0 3.1 13 13
+ 0.59 1 2 cbr 210 ------- 2 1.0 3.1 18 18
- 0.59 1 2 cbr 210 ------- 2 1.0 3.1 18 18
r 0.59168 1 2 cbr 210 ------- 2 1.0 3.1 16 16
+ 0.59168 2 3 cbr 210 ------- 2 1.0 3.1 16 16
- 0.59168 2 3 cbr 210 ------- 2 1.0 3.1 16 16
r 0.59336 2 3 cbr 210 ------- 2 1.0 3.1 14 14
+ 0.595 1 2 cbr 210 ------- 2 1.0 3.1 19 19
- 0.595 1 2 cbr 210 ------- 2 1.0 3.1 19 19
r 0.59668 1 2 cbr 210 ------- 2 1.0 3.1 17 17
+ 0.59668 2 3 cbr 210 ------- 2 1.0 3.1 17 17
- 0.59668 2 3 cbr 210 ------- 2 1.0 3.1 17 17
r 0.59836 2 3 cbr 210 ------- 2 1.0 3.1 15 15
+ 0.6 1 2 cbr 210 ------- 2 1.0 3.1 20 20
- 0.6 1 2 cbr 210 ------- 2 1.0 3.1 20 20
r 0.60168 1 2 cbr 210 ------- 2 1.0 3.1 18 18
+ 0.60168 2 3 cbr 210 ------- 2 1.0 3.1 18 18
- 0.60168 2 3 cbr 210 ------- 2 1.0 3.1 18 18
r 0.60336 2 3 cbr 210 ------- 2 1.0 3.1 16 16
+ 0.605 1 2 cbr 210 ------- 2 1.0 3.1 21 21
- 0.605 1 2 cbr 210 ------- 2 1.0 3.1 21 21
r 0.60668 1 2 cbr 210 ------- 2 1.0 3.1 19 19
+ 0.60668 2 3 cbr 210 ------- 2 1.0 3.1 19 19
- 0.60668 2 3 cbr 210 ------- 2 1.0 3.1 19 19
r 0.60836 2 3 cbr 210 ------- 2 1.0 3.1 17 17
+ 0.61 1 2 cbr 210 ------- 2 1.0 3.1 22 22
- 0.61 1 2 cbr 210 ------- 2 1.0 3.1 22 22
r 0.61168 1 2 cbr 210 ------- 2 1.0 3.1 20 20
+ 0.61168 2 3 cbr 210 ------- 2 1.0 3.1 20 20
- 0.61168 2 3 cbr 210 ------- 2 1.0 3.1 20 20
r 0.61336 2 3 cbr 210 ------- 2 1.0 3.1 18 18
+ 0.615 1 2 cbr 210 ------- 2 1.0 3.1 23 23
- 0.615 1 2 cbr 210 ------- 2 1.0 3.1 23 23
r 0.61668 1 2 cbr 210 ------- 2 1.0 3.1 21 21
+ 0.61668 2 3 cbr 210 ------- 2 1.0 3.1 21 21
- 0.61668 2 3 cbr 210 ------- 2 1.0 3.1 21 21
r 0.61836 2 3 cbr 210 ------- 2 1.0 3.1 19 19
+ 0.62 1 2 cbr 210 ------- 2 1.0 3.1 24 24
- 0.62 1 2 cbr 210 ------- 2 1.0 3.1 24 24
r 0.62168 1 2 cbr 210 ------- 2 1.0 3.1 22 22
+ 0.62168 2 3 cbr 210 ------- 2 1.0 3.1 22 22
- 0.62168 2 3 cbr 210 ------- 2 1.0 3.1 22 22
r 0.62336 2 3 cbr 210 ------- 2 1.0 3.1 20 20
+ 0.625 1 2 cbr 210 ------- 2 1.0 3.1 25 25
- 0.625 1 2 cbr 210 ------- 2 1.0 3.1 25 25
r 0.62668 1 2 cbr 210 ------- 2 1.0 3.1 23 23
+ 0.62668 2 3 cbr 210 ------- 2 1.0 3.1 23 23
- 0.62668 2 3 cbr 210 ------- 2 1.0 3.1 23 23
r 0.62836 2 3 cbr 210 ------- 2 1.0 3.1 21 21
+ 0.63 1 2 cbr 210 ------- 2 1.0 3.1 26 26
- 0.63 1 2 cbr 210 ------- 2 1.0 3.1 26 26
r 0.63168 1 2 cbr 210 ------- 2 1.0 3.1 24 24
+ 0.63168 2 3 cbr 210 ------- 2 1.0 3.1 24 24
- 0.63168 2 3 cbr 210 ------- 2 1.0 3.1 24 24
r 0.63336 2 3 cbr 210 ------- 2 1.0 3.1 22 22
+ 0.635 1 2 cbr 210 ------- 2 1.0 3.1 27 27
- 0.635 1 2 cbr 210 ------- 2 1.0 3.1 27 27
r 0.63668 1 2 cbr 210 ------- 2 1.0 3.1 25 25
+ 0.63668 2 3 cbr 210 ------- 2 1.0 3.1 25 25
- 0.63668 2 3 cbr 210 ------- 2 1.0 3.1 25 25
r 0.63836 2 3 cbr 210 ------- 2 1.0 3.1 23 23
+ 0.64 1 2 cbr 210 ------- 2 1.0 3.1 28 28
- 0.64 1 2 cbr 210 ------- 2 1.0 3.1 28 28
r 0.64168 1 2 cbr 210 ------- 2 1.0 3.1 26 26
+ 0.64168 2 3 cbr 210 ------- 2 1.0 3.1 26 26
- 0.64168 2 3 cbr 210 ------- 2 1.0 3.1 26 26
r 0.64336 2 3 cbr 210 ------- 2 1.0 3.1 24 24
+ 0.645 1 2 cbr 210 ------- 2 1.0 3.1 29 29
- 0.645 1 2 cbr 210 ------- 2 1.0 3.1 29 29
r 0.64668 1 2 cbr 210 ------- 2 1.0 3.1 27 27
+ 0.64668 2 3 cbr 210 ------- 2 1.0 3.1 27 27
- 0.64668 2 3 cbr 210 ------- 2 1.0 3.1 27 27
r 0.64836 2 3 cbr 210 ------- 2 1.0 3.1 25 25
+ 0.65 1 2 cbr 210 ------- 2 1.0 3.1 30 30
- 0.65 1 2 cbr 210 ------- 2 1.0 3.1 30 30
r 0.65168 1 2 cbr 210 ------- 2 1.0 3.1 28 28
+ 0.65168 2 3 cbr 210 ------- 2 1.0 3.1 28 28
- 0.65168 2 3 cbr 210 ------- 2 1.0 3.1 28 28
r 0.65336 2 3 cbr 210 ------- 2 1.0 3.1 26 26
+ 0.655 1 2 cbr 210 ------- 2 1.0 3.1 31 31
- 0.655 1 2 cbr 210 ------- 2 1.0 3.1 31 31
r 0.65668 1 2 cbr 210 ------- 2 1.0 3.1 29 29
+ 0.65668 2 3 cbr 210 ------- 2 1.0 3.1 29 29
- 0.65668 2 3 cbr 210 ------- 2 1.0 3.1 29 29
r 0.65836 2 3 cbr 210 ------- 2 1.0 3.1 27 27
+ 0.66 1 2 cbr 210 ------- 2 1.0 3.1 32 32
- 0.66 1 2 cbr 210 ------- 2 1.0 3.1 32 32
r 0.66168 1 2 cbr 210 ------- 2 1.0 3.1 30 30
+ 0.66168 2 3 cbr 210 ------- 2 1.0 3.1 30 30
- 0.66168 2 3 cbr 210 ------- 2 1.0 3.1 30 30
r 0.66336 2 3 cbr 210 ------- 2 1.0 3.1 28 28
+ 0.665 1 2 cbr 210 ------- 2 1.0 3.1 33 33
- 0.665 1 2 cbr 210 ------- 2 1.0 3.1 33 33
r 0.66668 1 2 cbr 210 ------- 2 1.0 3.1 31 31
+ 0.66668 2 3 cbr 210 ------- 2 1.0 3.1 31 31
- 0.66668 2 3 cbr 210 ------- 2 1.0 3.1 31 31
r 0.66836 2 3 cbr 210 ------- 2 1.0 3.1 29 29
+ 0.67 1 2 cbr 210 ------- 2 1.0 3.1 34 34
- 0.67 1 2 cbr 210 ------- 2 1.0 3.1 34 34
r 0.67168 1 2 cbr 210 ------- 2 1.0 3.1 32 32
+ 0.67168 2 3 cbr 210 ------- 2 1.0 3.1 32 32
- 0.67168 2 3 cbr 210 ------- 2 1.0 3.1 32 32
r 0.67336 2 3 cbr 210 ------- 2 1.0 3.1 30 30
+ 0.675 1 2 cbr 210 ------- 2 1.0 3.1 35 35
- 0.675 1 2 cbr 210 ------- 2 1.0 3.1 35 35
r 0.67668 1 2 cbr 210 ------- 2 1.0 3.1 33 33
+ 0.67668 2 3 cbr 210 ------- 2 1.0 3.1 33 33
- 0.67668 2 3 cbr 210 ------- 2 1.0 3.1 33 33
r 0.67836 2 3 cbr 210 ------- 2 1.0 3.1 31 31
+ 0.68 1 2 cbr 210 ------- 2 1.0 3.1 36 36
- 0.68 1 2 cbr 210 ------- 2 1.0 3.1 36 36
r 0.68168 1 2 cbr 210 ------- 2 1.0 3.1 34 34
+ 0.68168 2 3 cbr 210 ------- 2 1.0 3.1 34 34
- 0.68168 2 3 cbr 210 ------- 2 1.0 3.1 34 34
r 0.68336 2 3 cbr 210 ------- 2 1.0 3.1 32 32
+ 0.685 1 2 cbr 210 ------- 2 1.0 3.1 37 37
- 0.685 1 2 cbr 210 ------- 2 1.0 3.1 37 37
r 0.68668 1 2 cbr 210 ------- 2 1.0 3.1 35 35
+ 0.68668 2 3 cbr 210 ------- 2 1.0 3.1 35 35
- 0.68668 2 3 cbr 210 ------- 2 1.0 3.1 35 35
r 0.68836 2 3 cbr 210 ------- 2 1.0 3.1 33 33
+ 0.69 1 2 cbr 210 ------- 2 1.0 3.1 38 38
- 0.69 1 2 cbr 210 ------- 2 1.0 3.1 38 38
r 0.69168 1 2 cbr 210 ------- 2 1.0 3.1 36 36
+ 0.69168 2 3 cbr 210 ------- 2 1.0 3.1 36 36
- 0.69168 2 3 cbr 210 ------- 2 1.0 3.1 36 36
r 0.69336 2 3 cbr 210 ------- 2 1.0 3.1 34 34
+ 0.695 1 2 cbr 210 ------- 2 1.0 3.1 39 39
- 0.695 1 2 cbr 210 ------- 2 1.0 3.1 39 39
r 0.69668 1 2 cbr 210 ------- 2 1.0 3.1 37 37
+ 0.69668 2 3 cbr 210 ------- 2 1.0 3.1 37 37
- 0.69668 2 3 cbr 210 ------- 2 1.0 3.1 37 37
r 0.69836 2 3 cbr 210 ------- 2 1.0 3.1 35 35
+ 0.7 1 2 cbr 210 ------- 2 1.0 3.1 40 40
- 0.7 1 2 cbr 210 ------- 2 1.0 3.1 40 40
r 0.70168 1 2 cbr 210 ------- 2 1.0 3.1 38 38
+ 0.70168 2 3 cbr 210 ------- 2 1.0 3.1 38 38
- 0.70168 2 3 cbr 210 ------- 2 1.0 3.1 38 38
r 0.70336 2 3 cbr 210 ------- 2 1.0 3.1 36 36
+ 0.705 1 2 cbr 210 ------- 2 1.0 3.1 41 41
- 0.705 1 2 cbr 210 ------- 2 1.0 3.1 41 41
r 0.70668 1 2 cbr 210 ------- 2 1.0 3.1 39 39
+ 0.70668 2 3 cbr 210 ------- 2 1.0 3.1 39 39
- 0.70668 2 3 cbr 210 ------- 2 1.0 3.1 39 39
r 0.70836 2 3 cbr 210 ------- 2 1.0 3.1 37 37
+ 0.71 1 2 cbr 210 ------- 2 1.0 3.1 42 42
- 0.71 1 2 cbr 210 ------- 2 1.0 3.1 42 42
r 0.71168 1 2 cbr 210 ------- 2 1.0 3.1 40 40
+ 0.71168 2 3 cbr 210 ------- 2 1.0 3.1 40 40
- 0.71168 2 3 cbr 210 ------- 2 1.0 3.1 40 40
r 0.71336 2 3 cbr 210 ------- 2 1.0 3.1 38 38
+ 0.715 1 2 cbr 210 ------- 2 1.0 3.1 43 43
- 0.715 1 2 cbr 210 ------- 2 1.0 3.1 43 43
r 0.71668 1 2 cbr 210 ------- 2 1.0 3.1 41 41
+ 0.71668 2 3 cbr 210 ------- 2 1.0 3.1 41 41
- 0.71668 2 3 cbr 210 ------- 2 1.0 3.1 41 41
r 0.71836 2 3 cbr 210 ------- 2 1.0 3.1 39 39
+ 0.72 1 2 cbr 210 ------- 2 1.0 3.1 44 44
- 0.72 1 2 cbr 210 ------- 2 1.0 3.1 44 44
r 0.72168 1 2 cbr 210 ------- 2 1.0 3.1 42 42
+ 0.72168 2 3 cbr 210 ------- 2 1.0 3.1 42 42
- 0.72168 2 3 cbr 210 ------- 2 1.0 3.1 42 42
r 0.72336 2 3 cbr 210 ------- 2 1.0 3.1 40 40
+ 0.725 1 2 cbr 210 ------- 2 1.0 3.1 45 45
- 0.725 1 2 cbr 210 ------- 2 1.0 3.1 45 45
r 0.72668 1 2 cbr 210 ------- 2 1.0 3.1 43 43
+ 0.72668 2 3 cbr 210 ------- 2 1.0 3.1 43 43
- 0.72668 2 3 cbr 210 ------- 2 1.0 3.1 43 43
r 0.72836 2 3 cbr 210 ------- 2 1.0 3.1 41 41
+ 0.73 1 2 cbr 210 ------- 2 1.0 3.1 46 46
- 0.73 1 2 cbr 210 ------- 2 1.0 3.1 46 46
r 0.73168 1 2 cbr 210 ------- 2 1.0 3.1 44 44
+ 0.73168 2 3 cbr 210 ------- 2 1.0 3.1 44 44
- 0.73168 2 3 cbr 210 ------- 2 1.0 3.1 44 44
r 0.73336 2 3 cbr 210 ------- 2 1.0 3.1 42 42
+ 0.735 1 2 cbr 210 ------- 2 1.0 3.1 47 47
- 0.735 1 2 cbr 210 ------- 2 1.0 3.1 47 47
r 0.73668 1 2 cbr 210 ------- 2 1.0 3.1 45 45
+ 0.73668 2 3 cbr 210 ------- 2 1.0 3.1 45 45
- 0.73668 2 3 cbr 210 ------- 2 1.0 3.1 45 45
r 0.73836 2 3 cbr 210 ------- 2 1.0 3.1 43 43
+ 0.74 1 2 cbr 210 ------- 2 1.0 3.1 48 48
- 0.74 1 2 cbr 210 ------- 2 1.0 3.1 48 48
r 0.74168 1 2 cbr 210 ------- 2 1.0 3.1 46 46
+ 0.74168 2 3 cbr 210 ------- 2 1.0 3.1 46 46
- 0.74168 2 3 cbr 210 ------- 2 1.0 3.1 46 46
r 0.74336 2 3 cbr 210 ------- 2 1.0 3.1 44 44
+ 0.745 1 2 cbr 210 ------- 2 1.0 3.1 49 49
- 0.745 1 2 cbr 210 ------- 2 1.0 3.1 49 49
r 0.74668 1 2 cbr 210 ------- 2 1.0 3.1 47 47
+ 0.74668 2 3 cbr 210 ------- 2 1.0 3.1 47 47
- 0.74668 2 3 cbr 210 ------- 2 1.0 3.1 47 47
r 0.74836 2 3 cbr 210 ------- 2 1.0 3.1 45 45
+ 0.75 1 2 cbr 210 ------- 2 1.0 3.1 50 50
- 0.75 1 2 cbr 210 ------- 2 1.0 3.1 50 50
r 0.75168 1 2 cbr 210 ------- 2 1.0 3.1 48 48
+ 0.75168 2 3 cbr 210 ------- 2 1.0 3.1 48 48
- 0.75168 2 3 cbr 210 ------- 2 1.0 3.1 48 48
r 0.75336 2 3 cbr 210 ------- 2 1.0 3.1 46 46
+ 0.755 1 2 cbr 210 ------- 2 1.0 3.1 51 51
- 0.755 1 2 cbr 210 ------- 2 1.0 3.1 51 51
r 0.75668 1 2 cbr 210 ------- 2 1.0 3.1 49 49
+ 0.75668 2 3 cbr 210 ------- 2 1.0 3.1 49 49
- 0.75668 2 3 cbr 210 ------- 2 1.0 3.1 49 49
r 0.75836 2 3 cbr 210 ------- 2 1.0 3.1 47 47
+ 0.76 1 2 cbr 210 ------- 2 1.0 3.1 52 52
- 0.76 1 2 cbr 210 ------- 2 1.0 3.1 52 52
r 0.76168 1 2 cbr 210 ------- 2 1.0 3.1 50 50
+ 0.76168 2 3 cbr 210 ------- 2 1.0 3.1 50 50
- 0.76168 2 3 cbr 210 ------- 2 1.0 3.1 50 50
r 0.76336 2 3 cbr 210 ------- 2 1.0 3.1 48 48
+ 0.765 1 2 cbr 210 ------- 2 1.0 3.1 53 53
- 0.765 1 2 cbr 210 ------- 2 1.0 3.1 53 53
r 0.76668 1 2 cbr 210 ------- 2 1.0 3.1 51 51
+ 0.76668 2 3 cbr 210 ------- 2 1.0 3.1 51 51
- 0.76668 2 3 cbr 210 ------- 2 1.0 3.1 51 51
r 0.76836 2 3 cbr 210 ------- 2 1.0 3.1 49 49
+ 0.77 1 2 cbr 210 ------- 2 1.0 3.1 54 54
- 0.77 1 2 cbr 210 ------- 2 1.0 3.1 54 54
r 0.77168 1 2 cbr 210 ------- 2 1.0 3.1 52 52
+ 0.77168 2 3 cbr 210 ------- 2 1.0 3.1 52 52
- 0.77168 2 3 cbr 210 ------- 2 1.0 3.1 52 52
r 0.77336 2 3 cbr 210 ------- 2 1.0 3.1 50 50
+ 0.775 1 2 cbr 210 ------- 2 1.0 3.1 55 55
- 0.775 1 2 cbr 210 ------- 2 1.0 3.1 55 55
r 0.77668 1 2 cbr 210 ------- 2 1.0 3.1 53 53
+ 0.77668 2 3 cbr 210 ------- 2 1.0 3.1 53 53
- 0.77668 2 3 cbr 210 ------- 2 1.0 3.1 53 53
r 0.77836 2 3 cbr 210 ------- 2 1.0 3.1 51 51
+ 0.78 1 2 cbr 210 ------- 2 1.0 3.1 56 56
- 0.78 1 2 cbr 210 ------- 2 1.0 3.1 56 56
r 0.78168 1 2 cbr 210 ------- 2 1.0 3.1 54 54
+ 0.78168 2 3 cbr 210 ------- 2 1.0 3.1 54 54
- 0.78168 2 3 cbr 210 ------- 2 1.0 3.1 54 54
r 0.78336 2 3 cbr 210 ------- 2 1.0 3.1 52 52
+ 0.785 1 2 cbr 210 ------- 2 1.0 3.1 57 57
- 0.785 1 2 cbr 210 ------- 2 1.0 3.1 57 57
r 0.78668 1 2 cbr 210 ------- 2 1.0 3.1 55 55
+ 0.78668 2 3 cbr 210 ------- 2 1.0 3.1 55 55
- 0.78668 2 3 cbr 210 ------- 2 1.0 3.1 55 55
r 0.78836 2 3 cbr 210 ------- 2 1.0 3.1 53 53
+ 0.79 1 2 cbr 210 ------- 2 1.0 3.1 58 58
- 0.79 1 2 cbr 210 ------- 2 1.0 3.1 58 58
r 0.79168 1 2 cbr 210 ------- 2 1.0 3.1 56 56
+ 0.79168 2 3 cbr 210 ------- 2 1.0 3.1 56 56
- 0.79168 2 3 cbr 210 ------- 2 1.0 3.1 56 56
r 0.79336 2 3 cbr 210 ------- 2 1.0 3.1 54 54
+ 0.795 1 2 cbr 210 ------- 2 1.0 3.1 59 59
- 0.795 1 2 cbr 210 ------- 2 1.0 3.1 59 59
r 0.79668 1 2 cbr 210 ------- 2 1.0 3.1 57 57
+ 0.79668 2 3 cbr 210 ------- 2 1.0 3.1 57 57
- 0.79668 2 3 cbr 210 ------- 2 1.0 3.1 57 57
r 0.79836 2 3 cbr 210 ------- 2 1.0 3.1 55 55
+ 0.8 1 2 cbr 210 ------- 2 1.0 3.1 60 60
- 0.8 1 2 cbr 210 ------- 2 1.0 3.1 60 60
r 0.80168 1 2 cbr 210 ------- 2 1.0 3.1 58 58
+ 0.80168 2 3 cbr 210 ------- 2 1.0 3.1 58 58
- 0.80168 2 3 cbr 210 ------- 2 1.0 3.1 58 58
r 0.80336 2 3 cbr 210 ------- 2 1.0 3.1 56 56
+ 0.805 1 2 cbr 210 ------- 2 1.0 3.1 61 61
- 0.805 1 2 cbr 210 ------- 2 1.0 3.1 61 61
r 0.80668 1 2 cbr 210 ------- 2 1.0 3.1 59 59
+ 0.80668 2 3 cbr 210 ------- 2 1.0 3.1 59 59
- 0.80668 2 3 cbr 210 ------- 2 1.0 3.1 59 59
r 0.80836 2 3 cbr 210 ------- 2 1.0 3.1 57 57
+ 0.81 1 2 cbr 210 ------- 2 1.0 3.1 62 62
- 0.81 1 2 cbr 210 ------- 2 1.0 3.1 62 62
r 0.81168 1 2 cbr 210 ------- 2 1.0 3.1 60 60
+ 0.81168 2 3 cbr 210 ------- 2 1.0 3.1 60 60
- 0.81168 2 3 cbr 210 ------- 2 1.0 3.1 60 60
r 0.81336 2 3 cbr 210 ------- 2 1.0 3.1 58 58
+ 0.815 1 2 cbr 210 ------- 2 1.0 3.1 63 63
- 0.815 1 2 cbr 210 ------- 2 1.0 3.1 63 63
r 0.81668 1 2 cbr 210 ------- 2 1.0 3.1 61 61
+ 0.81668 2 3 cbr 210 ------- 2 1.0 3.1 61 61
- 0.81668 2 3 cbr 210 ------- 2 1.0 3.1 61 61
r 0.81836 2 3 cbr 210 ------- 2 1.0 3.1 59 59
+ 0.82 1 2 cbr 210 ------- 2 1.0 3.1 64 64
- 0.82 1 2 cbr 210 ------- 2 1.0 3.1 64 64
r 0.82168 1 2 cbr 210 ------- 2 1.0 3.1 62 62
+ 0.82168 2 3 cbr 210 ------- 2 1.0 3.1 62 62
- 0.82168 2 3 cbr 210 ------- 2 1.0 3.1 62 62
r 0.82336 2 3 cbr 210 ------- 2 1.0 3.1 60 60
+ 0.825 1 2 cbr 210 ------- 2 1.0 3.1 65 65
- 0.825 1 2 cbr 210 ------- 2 1.0 3.1 65 65
r 0.82668 1 2 cbr 210 ------- 2 1.0 3.1 63 63
+ 0.82668 2 3 cbr 210 ------- 2 1.0 3.1 63 63
- 0.82668 2 3 cbr 210 ------- 2 1.0 3.1 63 63
r 0.82836 2 3 cbr 210 ------- 2 1.0 3.1 61 61
+ 0.83 1 2 cbr 210 ------- 2 1.0 3.1 66 66
- 0.83 1 2 cbr 210 ------- 2 1.0 3.1 66 66
r 0.83168 1 2 cbr 210 ------- 2 1.0 3.1 64 64
+ 0.83168 2 3 cbr 210 ------- 2 1.0 3.1 64 64
- 0.83168 2 3 cbr 210 ------- 2 1.0 3.1 64 64
r 0.83336 2 3 cbr 210 ------- 2 1.0 3.1 62 62
+ 0.835 1 2 cbr 210 ------- 2 1.0 3.1 67 67
- 0.835 1 2 cbr 210 ------- 2 1.0 3.1 67 67
r 0.83668 1 2 cbr 210 ------- 2 1.0 3.1 65 65
+ 0.83668 2 3 cbr 210 ------- 2 1.0 3.1 65 65
- 0.83668 2 3 cbr 210 ------- 2 1.0 3.1 65 65
r 0.83836 2 3 cbr 210 ------- 2 1.0 3.1 63 63
+ 0.84 1 2 cbr 210 ------- 2 1.0 3.1 68 68
- 0.84 1 2 cbr 210 ------- 2 1.0 3.1 68 68
r 0.84168 1 2 cbr 210 ------- 2 1.0 3.1 66 66
+ 0.84168 2 3 cbr 210 ------- 2 1.0 3.1 66 66
- 0.84168 2 3 cbr 210 ------- 2 1.0 3.1 66 66
r 0.84336 2 3 cbr 210 ------- 2 1.0 3.1 64 64
+ 0.845 1 2 cbr 210 ------- 2 1.0 3.1 69 69
- 0.845 1 2 cbr 210 ------- 2 1.0 3.1 69 69
r 0.84668 1 2 cbr 210 ------- 2 1.0 3.1 67 67
+ 0.84668 2 3 cbr 210 ------- 2 1.0 3.1 67 67
- 0.84668 2 3 cbr 210 ------- 2 1.0 3.1 67 67
r 0.84836 2 3 cbr 210 ------- 2 1.0 3.1 65 65
+ 0.85 1 2 cbr 210 ------- 2 1.0 3.1 70 70
- 0.85 1 2 cbr 210 ------- 2 1.0 3.1 70 70
r 0.85168 1 2 cbr 210 ------- 2 1.0 3.1 68 68
+ 0.85168 2 3 cbr 210 ------- 2 1.0 3.1 68 68
- 0.85168 2 3 cbr 210 ------- 2 1.0 3.1 68 68
r 0.85336 2 3 cbr 210 ------- 2 1.0 3.1 66 66
+ 0.855 1 2 cbr 210 ------- 2 1.0 3.1 71 71
- 0.855 1 2 cbr 210 ------- 2 1.0 3.1 71 71
r 0.85668 1 2 cbr 210 ------- 2 1.0 3.1 69 69
+ 0.85668 2 3 cbr 210 ------- 2 1.0 3.1 69 69
- 0.85668 2 3 cbr 210 ------- 2 1.0 3.1 69 69
r 0.85836 2 3 cbr 210 ------- 2 1.0 3.1 67 67
+ 0.86 1 2 cbr 210 ------- 2 1.0 3.1 72 72
- 0.86 1 2 cbr 210 ------- 2 1.0 3.1 72 72
r 0.86168 1 2 cbr 210 ------- 2 1.0 3.1 70 70
+ 0.86168 2 3 cbr 210 ------- 2 1.0 3.1 70 70
- 0.86168 2 3 cbr 210 ------- 2 1.0 3.1 70 70
r 0.86336 2 3 cbr 210 ------- 2 1.0 3.1 68 68
+ 0.865 1 2 cbr 210 ------- 2 1.0 3.1 73 73
- 0.865 1 2 cbr 210 ------- 2 1.0 3.1 73 73
r 0.86668 1 2 cbr 210 ------- 2 1.0 3.1 71 71
+ 0.86668 2 3 cbr 210 ------- 2 1.0 3.1 71 71
- 0.86668 2 3 cbr 210 ------- 2 1.0 3.1 71 71
r 0.86836 2 3 cbr 210 ------- 2 1.0 3.1 69 69
+ 0.87 1 2 cbr 210 ------- 2 1.0 3.1 74 74
- 0.87 1 2 cbr 210 ------- 2 1.0 3.1 74 74
r 0.87168 1 2 cbr 210 ------- 2 1.0 3.1 72 72
+ 0.87168 2 3 cbr 210 ------- 2 1.0 3.1 72 72
- 0.87168 2 3 cbr 210 ------- 2 1.0 3.1 72 72
r 0.87336 2 3 cbr 210 ------- 2 1.0 3.1 70 70
+ 0.875 1 2 cbr 210 ------- 2 1.0 3.1 75 75
- 0.875 1 2 cbr 210 ------- 2 1.0 3.1 75 75
r 0.87668 1 2 cbr 210 ------- 2 1.0 3.1 73 73
+ 0.87668 2 3 cbr 210 ------- 2 1.0 3.1 73 73
- 0.87668 2 3 cbr 210 ------- 2 1.0 3.1 73 73
r 0.87836 2 3 cbr 210 ------- 2 1.0 3.1 71 71
+ 0.88 1 2 cbr 210 ------- 2 1.0 3.1 76 76
- 0.88 1 2 cbr 210 ------- 2 1.0 3.1 76 76
r 0.88168 1 2 cbr 210 ------- 2 1.0 3.1 74 74
+ 0.88168 2 3 cbr 210 ------- 2 1.0 3.1 74 74
- 0.88168 2 3 cbr 210 ------- 2 1.0 3.1 74 74
r 0.88336 2 3 cbr 210 ------- 2 1.0 3.1 72 72
+ 0.885 1 2 cbr 210 ------- 2 1.0 3.1 77 77
- 0.885 1 2 cbr 210 ------- 2 1.0 3.1 77 77
r 0.88668 1 2 cbr 210 ------- 2 1.0 3.1 75 75
+ 0.88668 2 3 cbr 210 ------- 2 1.0 3.1 75 75
- 0.88668 2 3 cbr 210 ------- 2 1.0 3.1 75 75
r 0.88836 2 3 cbr 210 ------- 2 1.0 3.1 73 73
+ 0.89 1 2 cbr 210 ------- 2 1.0 3.1 78 78
- 0.89 1 2 cbr 210 ------- 2 1.0 3.1 78 78
r 0.89168 1 2 cbr 210 ------- 2 1.0 3.1 76 76
+ 0.89168 2 3 cbr 210 ------- 2 1.0 3.1 76 76
- 0.89168 2 3 cbr 210 ------- 2 1.0 3.1 76 76
r 0.89336 2 3 cbr 210 ------- 2 1.0 3.1 74 74
+ 0.895 1 2 cbr 210 ------- 2 1.0 3.1 79 79
- 0.895 1 2 cbr 210 ------- 2 1.0 3.1 79 79
r 0.89668 1 2 cbr 210 ------- 2 1.0 3.1 77 77
+ 0.89668 2 3 cbr 210 ------- 2 1.0 3.1 77 77
- 0.89668 2 3 cbr 210 ------- 2 1.0 3.1 77 77
r 0.89836 2 3 cbr 210 ------- 2 1.0 3.1 75 75
+ 0.9 1 2 cbr 210 ------- 2 1.0 3.1 80 80
- 0.9 1 2 cbr 210 ------- 2 1.0 3.1 80 80
r 0.90168 1 2 cbr 210 ------- 2 1.0 3.1 78 78
+ 0.90168 2 3 cbr 210 ------- 2 1.0 3.1 78 78
- 0.90168 2 3 cbr 210 ------- 2 1.0 3.1 78 78
r 0.90336 2 3 cbr 210 ------- 2 1.0 3.1 76 76
+ 0.905 1 2 cbr 210 ------- 2 1.0 3.1 81 81
- 0.905 1 2 cbr 210 ------- 2 1.0 3.1 81 81
r 0.90668 1 2 cbr 210 ------- 2 1.0 3.1 79 79
+ 0.90668 2 3 cbr 210 ------- 2 1.0 3.1 79 79
- 0.90668 2 3 cbr 210 ------- 2 1.0 3.1 79 79
r 0.90836 2 3 cbr 210 ------- 2 1.0 3.1 77 77
+ 0.91 1 2 cbr 210 ------- 2 1.0 3.1 82 82
- 0.91 1 2 cbr 210 ------- 2 1.0 3.1 82 82
r 0.91168 1 2 cbr 210 ------- 2 1.0 3.1 80 80
+ 0.91168 2 3 cbr 210 ------- 2 1.0 3.1 80 80
- 0.91168 2 3 cbr 210 ------- 2 1.0 3.1 80 80
r 0.91336 2 3 cbr 210 ------- 2 1.0 3.1 78 78
+ 0.915 1 2 cbr 210 ------- 2 1.0 3.1 83 83
- 0.915 1 2 cbr 210 ------- 2 1.0 3.1 83 83
r 0.91668 1 2 cbr 210 ------- 2 1.0 3.1 81 81
+ 0.91668 2 3 cbr 210 ------- 2 1.0 3.1 81 81
- 0.91668 2 3 cbr 210 ------- 2 1.0 3.1 81 81
r 0.91836 2 3 cbr 210 ------- 2 1.0 3.1 79 79
+ 0.92 1 2 cbr 210 ------- 2 1.0 3.1 84 84
- 0.92 1 2 cbr 210 ------- 2 1.0 3.1 84 84
r 0.92168 1 2 cbr 210 ------- 2 1.0 3.1 82 82
+ 0.92168 2 3 cbr 210 ------- 2 1.0 3.1 82 82
- 0.92168 2 3 cbr 210 ------- 2 1.0 3.1 82 82
r 0.92336 2 3 cbr 210 ------- 2 1.0 3.1 80 80
+ 0.925 1 2 cbr 210 ------- 2 1.0 3.1 85 85
- 0.925 1 2 cbr 210 ------- 2 1.0 3.1 85 85
r 0.92668 1 2 cbr 210 ------- 2 1.0 3.1 83 83
+ 0.92668 2 3 cbr 210 ------- 2 1.0 3.1 83 83
- 0.92668 2 3 cbr 210 ------- 2 1.0 3.1 83 83
r 0.92836 2 3 cbr 210 ------- 2 1.0 3.1 81 81
+ 0.93 1 2 cbr 210 ------- 2 1.0 3.1 86 86
- 0.93 1 2 cbr 210 ------- 2 1.0 3.1 86 86
r 0.93168 1 2 cbr 210 ------- 2 1.0 3.1 84 84
+ 0.93168 2 3 cbr 210 ------- 2 1.0 3.1 84 84
- 0.93168 2 3 cbr 210 ------- 2 1.0 3.1 84 84
r 0.93336 2 3 cbr 210 ------- 2 1.0 3.1 82 82
+ 0.935 1 2 cbr 210 ------- 2 1.0 3.1 87 87
- 0.935 1 2 cbr 210 ------- 2 1.0 3.1 87 87
r 0.93668 1 2 cbr 210 ------- 2 1.0 3.1 85 85
+ 0.93668 2 3 cbr 210 ------- 2 1.0 3.1 85 85
- 0.93668 2 3 cbr 210 ------- 2 1.0 3.1 85 85
r 0.93836 2 3 cbr 210 ------- 2 1.0 3.1 83 83
+ 0.94 1 2 cbr 210 ------- 2 1.0 3.1 88 88
- 0.94 1 2 cbr 210 ------- 2 1.0 3.1 88 88
r 0.94168 1 2 cbr 210 ------- 2 1.0 3.1 86 86
+ 0.94168 2 3 cbr 210 ------- 2 1.0 3.1 86 86
- 0.94168 2 3 cbr 210 ------- 2 1.0 3.1 86 86
r 0.94336 2 3 cbr 210 ------- 2 1.0 3.1 84 84
+ 0.945 1 2 cbr 210 ------- 2 1.0 3.1 89 89
- 0.945 1 2 cbr 210 ------- 2 1.0 3.1 89 89
r 0.94668 1 2 cbr 210 ------- 2 1.0 3.1 87 87
+ 0.94668 2 3 cbr 210 ------- 2 1.0 3.1 87 87
- 0.94668 2 3 cbr 210 ------- 2 1.0 3.1 87 87
r 0.94836 2 3 cbr 210 ------- 2 1.0 3.1 85 85
+ 0.95 1 2 cbr 210 ------- 2 1.0 3.1 90 90
- 0.95 1 2 cbr 210 ------- 2 1.0 3.1 90 90
r 0.95168 1 2 cbr 210 ------- 2 1.0 3.1 88 88
+ 0.95168 2 3 cbr 210 ------- 2 1.0 3.1 88 88
- 0.95168 2 3 cbr 210 ------- 2 1.0 3.1 88 88
r 0.95336 2 3 cbr 210 ------- 2 1.0 3.1 86 86
+ 0.955 1 2 cbr 210 ------- 2 1.0 3.1 91 91
- 0.955 1 2 cbr 210 ------- 2 1.0 3.1 91 91
r 0.95668 1 2 cbr 210 ------- 2 1.0 3.1 89 89
+ 0.95668 2 3 cbr 210 ------- 2 1.0 3.1 89 89
- 0.95668 2 3 cbr 210 ------- 2 1.0 3.1 89 89
r 0.95836 2 3 cbr 210 ------- 2 1.0 3.1 87 87
+ 0.96 1 2 cbr 210 ------- 2 1.0 3.1 92 92
- 0.96 1 2 cbr 210 ------- 2 1.0 3.1 92 92
r 0.96168 1 2 cbr 210 ------- 2 1.0 3.1 90 90
+ 0.96168 2 3 cbr 210 ------- 2 1.0 3.1 90 90
- 0.96168 2 3 cbr 210 ------- 2 1.0 3.1 90 90
r 0.96336 2 3 cbr 210 ------- 2 1.0 3.1 88 88
+ 0.965 1 2 cbr 210 ------- 2 1.0 3.1 93 93
- 0.965 1 2 cbr 210 ------- 2 1.0 3.1 93 93
r 0.96668 1 2 cbr 210 ------- 2 1.0 3.1 91 91
+ 0.96668 2 3 cbr 210 ------- 2 1.0 3.1 91 91
- 0.96668 2 3 cbr 210 ------- 2 1.0 3.1 91 91
r 0.96836 2 3 cbr 210 ------- 2 1.0 3.1 89 89
+ 0.97 1 2 cbr 210 ------- 2 1.0 3.1 94 94
- 0.97 1 2 cbr 210 ------- 2 1.0 3.1 94 94
r 0.97168 1 2 cbr 210 ------- 2 1.0 3.1 92 92
+ 0.97168 2 3 cbr 210 ------- 2 1.0 3.1 92 92
- 0.97168 2 3 cbr 210 ------- 2 1.0 3.1 92 92
r 0.97336 2 3 cbr 210 ------- 2 1.0 3.1 90 90
+ 0.975 1 2 cbr 210 ------- 2 1.0 3.1 95 95
- 0.975 1 2 cbr 210 ------- 2 1.0 3.1 95 95
r 0.97668 1 2 cbr 210 ------- 2 1.0 3.1 93 93
+ 0.97668 2 3 cbr 210 ------- 2 1.0 3.1 93 93
- 0.97668 2 3 cbr 210 ------- 2 1.0 3.1 93 93
r 0.97836 2 3 cbr 210 ------- 2 1.0 3.1 91 91
+ 0.98 1 2 cbr 210 ------- 2 1.0 3.1 96 96
- 0.98 1 2 cbr 210 ------- 2 1.0 3.1 96 96
r 0.98168 1 2 cbr 210 ------- 2 1.0 3.1 94 94
+ 0.98168 2 3 cbr 210 ------- 2 1.0 3.1 94 94
- 0.98168 2 3 cbr 210 ------- 2 1.0 3.1 94 94
r 0.98336 2 3 cbr 210 ------- 2 1.0 3.1 92 92
+ 0.985 1 2 cbr 210 ------- 2 1.0 3.1 97 97
- 0.985 1 2 cbr 210 ------- 2 1.0 3.1 97 97
r 0.98668 1 2 cbr 210 ------- 2 1.0 3.1 95 95
+ 0.98668 2 3 cbr 210 ------- 2 1.0 3.1 95 95
- 0.98668 2 3 cbr 210 ------- 2 1.0 3.1 95 95
r 0.98836 2 3 cbr 210 ------- 2 1.0 3.1 93 93
+ 0.99 1 2 cbr 210 ------- 2 1.0 3.1 98 98
- 0.99 1 2 cbr 210 ------- 2 1.0 3.1 98 98
r 0.99168 1 2 cbr 210 ------- 2 1.0 3.1 96 96
+ 0.99168 2 3 cbr 210 ------- 2 1.0 3.1 96 96
- 0.99168 2 3 cbr 210 ------- 2 1.0 3.1 96 96
r 0.99336 2 3 cbr 210 ------- 2 1.0 3.1 94 94
+ 0.995 1 2 cbr 210 ------- 2 1.0 3.1 99 99
- 0.995 1 2 cbr 210 ------- 2 1.0 3.1 99 99
r 0.99668 1 2 cbr 210 ------- 2 1.0 3.1 97 97
+ 0.99668 2 3 cbr 210 ------- 2 1.0 3.1 97 97
- 0.99668 2 3 cbr 210 ------- 2 1.0 3.1 97 97
r 0.99836 2 3 cbr 210 ------- 2 1.0 3.1 95 95
+ 1 0 2 tcp 40 ------- 1 0.0 3.0 0 100
- 1 0 2 tcp 40 ------- 1 0.0 3.0 0 100
+ 1 1 2 cbr 210 ------- 2 1.0 3.1 100 101
- 1 1 2 cbr 210 ------- 2 1.0 3.1 100 101
r 1.00168 1 2 cbr 210 ------- 2 1.0 3.1 98 98
+ 1.00168 2 3 cbr 210 ------- 2 1.0 3.1 98 98
- 1.00168 2 3 cbr 210 ------- 2 1.0 3.1 98 98
r 1.00336 2 3 cbr 210 ------- 2 1.0 3.1 96 96
+ 1.005 1 2 cbr 210 ------- 2 1.0 3.1 101 102
- 1.005 1 2 cbr 210 ------- 2 1.0 3.1 101 102
r 1.00668 1 2 cbr 210 ------- 2 1.0 3.1 99 99
+ 1.00668 2 3 cbr 210 ------- 2 1.0 3.1 99 99
- 1.00668 2 3 cbr 210 ------- 2 1.0 3.1 99 99
r 1.00836 2 3 cbr 210 ------- 2 1.0 3.1 97 97
+ 1.01 1 2 cbr 210 ------- 2 1.0 3.1 102 103
- 1.01 1 2 cbr 210 ------- 2 1.0 3.1 102 103
r 1.01032 0 2 tcp 40 ------- 1 0.0 3.0 0 100
+ 1.01032 2 3 tcp 40 ------- 1 0.0 3.0 0 100
- 1.01032 2 3 tcp 40 ------- 1 0.0 3.0 0 100
r 1.01168 1 2 cbr 210 ------- 2 1.0 3.1 100 101
+ 1.01168 2 3 cbr 210 ------- 2 1.0 3.1 100 101
- 1.01168 2 3 cbr 210 ------- 2 1.0 3.1 100 101
r 1.01336 2 3 cbr 210 ------- 2 1.0 3.1 98 98
+ 1.015 1 2 cbr 210 ------- 2 1.0 3.1 103 104
- 1.015 1 2 cbr 210 ------- 2 1.0 3.1 103 104
r 1.01668 1 2 cbr 210 ------- 2 1.0 3.1 101 102
+ 1.01668 2 3 cbr 210 ------- 2 1.0 3.1 101 102
- 1.01668 2 3 cbr 210 ------- 2 1.0 3.1 101 102
r 1.01836 2 3 cbr 210 ------- 2 1.0 3.1 99 99
+ 1.02 1 2 cbr 210 ------- 2 1.0 3.1 104 105
- 1.02 1 2 cbr 210 ------- 2 1.0 3.1 104 105
r 1.02064 2 3 tcp 40 ------- 1 0.0 3.0 0 100
+ 1.02064 3 2 ack 40 ------- 1 3.0 0.0 0 106
- 1.02064 3 2 ack 40 ------- 1 3.0 0.0 0 106
r 1.02168 1 2 cbr 210 ------- 2 1.0 3.1 102 103
+ 1.02168 2 3 cbr 210 ------- 2 1.0 3.1 102 103
- 1.02168 2 3 cbr 210 ------- 2 1.0 3.1 102 103
r 1.02336 2 3 cbr 210 ------- 2 1.0 3.1 100 101
+ 1.025 1 2 cbr 210 ------- 2 1.0 3.1 105 107
- 1.025 1 2 cbr 210 ------- 2 1.0 3.1 105 107
r 1.02668 1 2 cbr 210 ------- 2 1.0 3.1 103 104
+ 1.02668 2 3 cbr 210 ------- 2 1.0 3.1 103 104
- 1.02668 2 3 cbr 210 ------- 2 1.0 3.1 103 104
r 1.02836 2 3 cbr 210 ------- 2 1.0 3.1 101 102
+ 1.03 1 2 cbr 210 ------- 2 1.0 3.1 106 108
- 1.03 1 2 cbr 210 ------- 2 1.0 3.1 106 108
r 1.03096 3 2 ack 40 ------- 1 3.0 0.0 0 106
+ 1.03096 2 0 ack 40 ------- 1 3.0 0.0 0 106
- 1.03096 2 0 ack 40 ------- 1 3.0 0.0 0 106
r 1.03168 1 2 cbr 210 ------- 2 1.0 3.1 104 105
+ 1.03168 2 3 cbr 210 ------- 2 1.0 3.1 104 105
- 1.03168 2 3 cbr 210 ------- 2 1.0 3.1 104 105
r 1.03336 2 3 cbr 210 ------- 2 1.0 3.1 102 103
+ 1.035 1 2 cbr 210 ------- 2 1.0 3.1 107 109
- 1.035 1 2 cbr 210 ------- 2 1.0 3.1 107 109
r 1.03668 1 2 cbr 210 ------- 2 1.0 3.1 105 107
+ 1.03668 2 3 cbr 210 ------- 2 1.0 3.1 105 107
- 1.03668 2 3 cbr 210 ------- 2 1.0 3.1 105 107
r 1.03836 2 3 cbr 210 ------- 2 1.0 3.1 103 104
+ 1.04 1 2 cbr 210 ------- 2 1.0 3.1 108 110
- 1.04 1 2 cbr 210 ------- 2 1.0 3.1 108 110
r 1.04128 2 0 ack 40 ------- 1 3.0 0.0 0 106
+ 1.04128 0 2 tcp 1040 ------- 1 0.0 3.0 1 111
- 1.04128 0 2 tcp 1040 ------- 1 0.0 3.0 1 111
+ 1.04128 0 2 tcp 1040 ------- 1 0.0 3.0 2 112
r 1.04168 1 2 cbr 210 ------- 2 1.0 3.1 106 108
+ 1.04168 2 3 cbr 210 ------- 2 1.0 3.1 106 108
- 1.04168 2 3 cbr 210 ------- 2 1.0 3.1 106 108
r 1.04336 2 3 cbr 210 ------- 2 1.0 3.1 104 105
+ 1.045 1 2 cbr 210 ------- 2 1.0 3.1 109 113
- 1.045 1 2 cbr 210 ------- 2 1.0 3.1 109 113
r 1.04668 1 2 cbr 210 ------- 2 1.0 3.1 107 109
+ 1.04668 2 3 cbr 210 ------- 2 1.0 3.1 107 109
- 1.04668 2 3 cbr 210 ------- 2 1.0 3.1 107 109
r 1.04836 2 3 cbr 210 ------- 2 1.0 3.1 105 107