+ 0.5 0 1 tcp 40 ------- 1 0.0 6.0 0 0
- 0.5 0 1 tcp 40 ------- 1 0.0 6.0 0 0
r 0.51032 0 1 tcp 40 ------- 1 0.0 6.0 0 0
h 0.51032 1 8 tcp 40 ------- 1 0.0 6.0 0 0
+ 0.55032 1 8 tcp 40 ------- 1 0.0 6.0 0 0
- 0.55032 1 8 tcp 40 ------- 1 0.0 6.0 0 0
r 0.59058 8 6 tcp 40 ------- 1 0.0 6.0 0 0
h 0.59058 6 8 ack 40 ------- 1 6.0 0.0 0 1
+ 0.63058 6 8 ack 40 ------- 1 6.0 0.0 0 1
- 0.63058 6 8 ack 40 ------- 1 6.0 0.0 0 1
r 0.67084 8 1 ack 40 ------- 1 6.0 0.0 0 1
+ 0.67084 1 0 ack 40 ------- 1 6.0 0.0 0 1
- 0.67084 1 0 ack 40 ------- 1 6.0 0.0 0 1
r 0.68116 1 0 ack 40 ------- 1 6.0 0.0 0 1
+ 0.68116 0 1 tcp 1040 ------- 1 0.0 6.0 1 2
- 0.68116 0 1 tcp 1040 ------- 1 0.0 6.0 1 2
+ 0.68116 0 1 tcp 1040 ------- 1 0.0 6.0 2 3
- 0.68948 0 1 tcp 1040 ------- 1 0.0 6.0 2 3
r 0.69948 0 1 tcp 1040 ------- 1 0.0 6.0 1 2
h 0.69948 1 8 tcp 1040 ------- 1 0.0 6.0 1 2
r 0.7078 0 1 tcp 1040 ------- 1 0.0 6.0 2 3
h 0.7078 1 8 tcp 1040 ------- 1 0.0 6.0 2 3
+ 0.73948 1 8 tcp 1040 ------- 1 0.0 6.0 1 2
- 0.73948 1 8 tcp 1040 ------- 1 0.0 6.0 1 2
+ 0.7478 1 8 tcp 1040 ------- 1 0.0 6.0 2 3
- 0.7478 1 8 tcp 1040 ------- 1 0.0 6.0 2 3
r 0.7837 8 6 tcp 1040 ------- 1 0.0 6.0 1 2
h 0.7837 6 8 ack 40 ------- 1 6.0 0.0 1 4
r 0.79202 8 6 tcp 1040 ------- 1 0.0 6.0 2 3
h 0.79202 6 8 ack 40 ------- 1 6.0 0.0 2 5
+ 0.8237 6 8 ack 40 ------- 1 6.0 0.0 1 4
- 0.8237 6 8 ack 40 ------- 1 6.0 0.0 1 4
+ 0.83202 6 8 ack 40 ------- 1 6.0 0.0 2 5
- 0.83202 6 8 ack 40 ------- 1 6.0 0.0 2 5
r 0.86396 8 1 ack 40 ------- 1 6.0 0.0 1 4
+ 0.86396 1 0 ack 40 ------- 1 6.0 0.0 1 4
- 0.86396 1 0 ack 40 ------- 1 6.0 0.0 1 4
r 0.87228 8 1 ack 40 ------- 1 6.0 0.0 2 5
+ 0.87228 1 0 ack 40 ------- 1 6.0 0.0 2 5
- 0.87228 1 0 ack 40 ------- 1 6.0 0.0 2 5
r 0.87428 1 0 ack 40 ------- 1 6.0 0.0 1 4
+ 0.87428 0 1 tcp 1040 ------- 1 0.0 6.0 3 6
- 0.87428 0 1 tcp 1040 ------- 1 0.0 6.0 3 6
+ 0.87428 0 1 tcp 1040 ------- 1 0.0 6.0 4 7
r 0.8826 1 0 ack 40 ------- 1 6.0 0.0 2 5
+ 0.8826 0 1 tcp 1040 ------- 1 0.0 6.0 5 8
+ 0.8826 0 1 tcp 1040 ------- 1 0.0 6.0 6 9
- 0.8826 0 1 tcp 1040 ------- 1 0.0 6.0 4 7
- 0.89092 0 1 tcp 1040 ------- 1 0.0 6.0 5 8
r 0.8926 0 1 tcp 1040 ------- 1 0.0 6.0 3 6
h 0.8926 1 8 tcp 1040 ------- 1 0.0 6.0 3 6
- 0.89924 0 1 tcp 1040 ------- 1 0.0 6.0 6 9
r 0.90092 0 1 tcp 1040 ------- 1 0.0 6.0 4 7
h 0.90092 1 8 tcp 1040 ------- 1 0.0 6.0 4 7
r 0.90924 0 1 tcp 1040 ------- 1 0.0 6.0 5 8
h 0.90924 1 8 tcp 1040 ------- 1 0.0 6.0 5 8
r 0.91756 0 1 tcp 1040 ------- 1 0.0 6.0 6 9
h 0.91756 1 8 tcp 1040 ------- 1 0.0 6.0 6 9
+ 0.9326 1 8 tcp 1040 ------- 1 0.0 6.0 3 6
- 0.9326 1 8 tcp 1040 ------- 1 0.0 6.0 3 6
+ 0.94092 1 8 tcp 1040 ------- 1 0.0 6.0 4 7
- 0.94092 1 8 tcp 1040 ------- 1 0.0 6.0 4 7
+ 0.94924 1 8 tcp 1040 ------- 1 0.0 6.0 5 8
- 0.94924 1 8 tcp 1040 ------- 1 0.0 6.0 5 8
+ 0.95756 1 8 tcp 1040 ------- 1 0.0 6.0 6 9
- 0.95756 1 8 tcp 1040 ------- 1 0.0 6.0 6 9
r 0.97682 8 6 tcp 1040 ------- 1 0.0 6.0 3 6
h 0.97682 6 8 ack 40 ------- 1 6.0 0.0 3 10
r 0.98514 8 6 tcp 1040 ------- 1 0.0 6.0 4 7
h 0.98514 6 8 ack 40 ------- 1 6.0 0.0 4 11
r 0.99346 8 6 tcp 1040 ------- 1 0.0 6.0 5 8
h 0.99346 6 8 ack 40 ------- 1 6.0 0.0 5 12
+ 1 7 2 tcp 40 ------- 2 7.0 5.0 0 13
- 1 7 2 tcp 40 ------- 2 7.0 5.0 0 13
r 1.00178 8 6 tcp 1040 ------- 1 0.0 6.0 6 9
h 1.00178 6 8 ack 40 ------- 1 6.0 0.0 6 14
r 1.01032 7 2 tcp 40 ------- 2 7.0 5.0 0 13
h 1.01032 2 8 tcp 40 ------- 2 7.0 5.0 0 13
+ 1.01682 6 8 ack 40 ------- 1 6.0 0.0 3 10
- 1.01682 6 8 ack 40 ------- 1 6.0 0.0 3 10
+ 1.02514 6 8 ack 40 ------- 1 6.0 0.0 4 11
- 1.02514 6 8 ack 40 ------- 1 6.0 0.0 4 11
+ 1.03346 6 8 ack 40 ------- 1 6.0 0.0 5 12
- 1.03346 6 8 ack 40 ------- 1 6.0 0.0 5 12
+ 1.04178 6 8 ack 40 ------- 1 6.0 0.0 6 14
- 1.04178 6 8 ack 40 ------- 1 6.0 0.0 6 14
+ 1.05032 2 8 tcp 40 ------- 2 7.0 5.0 0 13
- 1.05032 2 8 tcp 40 ------- 2 7.0 5.0 0 13
r 1.05708 8 1 ack 40 ------- 1 6.0 0.0 3 10
+ 1.05708 1 0 ack 40 ------- 1 6.0 0.0 3 10
- 1.05708 1 0 ack 40 ------- 1 6.0 0.0 3 10
r 1.0654 8 1 ack 40 ------- 1 6.0 0.0 4 11
+ 1.0654 1 0 ack 40 ------- 1 6.0 0.0 4 11
- 1.0654 1 0 ack 40 ------- 1 6.0 0.0 4 11
r 1.0674 1 0 ack 40 ------- 1 6.0 0.0 3 10
+ 1.0674 0 1 tcp 1040 ------- 1 0.0 6.0 7 15
- 1.0674 0 1 tcp 1040 ------- 1 0.0 6.0 7 15
+ 1.0674 0 1 tcp 1040 ------- 1 0.0 6.0 8 16
r 1.07372 8 1 ack 40 ------- 1 6.0 0.0 5 12
+ 1.07372 1 0 ack 40 ------- 1 6.0 0.0 5 12
- 1.07372 1 0 ack 40 ------- 1 6.0 0.0 5 12
r 1.07572 1 0 ack 40 ------- 1 6.0 0.0 4 11
+ 1.07572 0 1 tcp 1040 ------- 1 0.0 6.0 9 17
+ 1.07572 0 1 tcp 1040 ------- 1 0.0 6.0 10 18
- 1.07572 0 1 tcp 1040 ------- 1 0.0 6.0 8 16
r 1.08204 8 1 ack 40 ------- 1 6.0 0.0 6 14
+ 1.08204 1 0 ack 40 ------- 1 6.0 0.0 6 14
- 1.08204 1 0 ack 40 ------- 1 6.0 0.0 6 14
r 1.08404 1 0 ack 40 ------- 1 6.0 0.0 5 12
+ 1.08404 0 1 tcp 1040 ------- 1 0.0 6.0 11 19
+ 1.08404 0 1 tcp 1040 ------- 1 0.0 6.0 12 20
- 1.08404 0 1 tcp 1040 ------- 1 0.0 6.0 9 17
r 1.08572 0 1 tcp 1040 ------- 1 0.0 6.0 7 15
h 1.08572 1 8 tcp 1040 ------- 1 0.0 6.0 7 15
r 1.09058 8 5 tcp 40 ------- 2 7.0 5.0 0 13
h 1.09058 5 8 ack 40 ------- 2 5.0 7.0 0 21
r 1.09236 1 0 ack 40 ------- 1 6.0 0.0 6 14
+ 1.09236 0 1 tcp 1040 ------- 1 0.0 6.0 13 22
+ 1.09236 0 1 tcp 1040 ------- 1 0.0 6.0 14 23
- 1.09236 0 1 tcp 1040 ------- 1 0.0 6.0 10 18
r 1.09404 0 1 tcp 1040 ------- 1 0.0 6.0 8 16
h 1.09404 1 8 tcp 1040 ------- 1 0.0 6.0 8 16
- 1.10068 0 1 tcp 1040 ------- 1 0.0 6.0 11 19
r 1.10236 0 1 tcp 1040 ------- 1 0.0 6.0 9 17
h 1.10236 1 8 tcp 1040 ------- 1 0.0 6.0 9 17
- 1.109 0 1 tcp 1040 ------- 1 0.0 6.0 12 20
r 1.11068 0 1 tcp 1040 ------- 1 0.0 6.0 10 18
h 1.11068 1 8 tcp 1040 ------- 1 0.0 6.0 10 18
- 1.11732 0 1 tcp 1040 ------- 1 0.0 6.0 13 22
r 1.119 0 1 tcp 1040 ------- 1 0.0 6.0 11 19
h 1.119 1 8 tcp 1040 ------- 1 0.0 6.0 11 19
- 1.12564 0 1 tcp 1040 ------- 1 0.0 6.0 14 23
+ 1.12572 1 8 tcp 1040 ------- 1 0.0 6.0 7 15
- 1.12572 1 8 tcp 1040 ------- 1 0.0 6.0 7 15
r 1.12732 0 1 tcp 1040 ------- 1 0.0 6.0 12 20
h 1.12732 1 8 tcp 1040 ------- 1 0.0 6.0 12 20
+ 1.13058 5 8 ack 40 ------- 2 5.0 7.0 0 21
- 1.13058 5 8 ack 40 ------- 2 5.0 7.0 0 21
+ 1.13404 1 8 tcp 1040 ------- 1 0.0 6.0 8 16
- 1.13404 1 8 tcp 1040 ------- 1 0.0 6.0 8 16
r 1.13564 0 1 tcp 1040 ------- 1 0.0 6.0 13 22
h 1.13564 1 8 tcp 1040 ------- 1 0.0 6.0 13 22
+ 1.14236 1 8 tcp 1040 ------- 1 0.0 6.0 9 17
- 1.14236 1 8 tcp 1040 ------- 1 0.0 6.0 9 17
r 1.14396 0 1 tcp 1040 ------- 1 0.0 6.0 14 23
h 1.14396 1 8 tcp 1040 ------- 1 0.0 6.0 14 23
+ 1.15068 1 8 tcp 1040 ------- 1 0.0 6.0 10 18
- 1.15068 1 8 tcp 1040 ------- 1 0.0 6.0 10 18
+ 1.159 1 8 tcp 1040 ------- 1 0.0 6.0 11 19
- 1.159 1 8 tcp 1040 ------- 1 0.0 6.0 11 19
+ 1.16732 1 8 tcp 1040 ------- 1 0.0 6.0 12 20
- 1.16732 1 8 tcp 1040 ------- 1 0.0 6.0 12 20
r 1.16994 8 6 tcp 1040 ------- 1 0.0 6.0 7 15
h 1.16994 6 8 ack 40 ------- 1 6.0 0.0 7 24
r 1.17084 8 2 ack 40 ------- 2 5.0 7.0 0 21
+ 1.17084 2 7 ack 40 ------- 2 5.0 7.0 0 21
- 1.17084 2 7 ack 40 ------- 2 5.0 7.0 0 21
+ 1.17564 1 8 tcp 1040 ------- 1 0.0 6.0 13 22
- 1.17564 1 8 tcp 1040 ------- 1 0.0 6.0 13 22
r 1.17826 8 6 tcp 1040 ------- 1 0.0 6.0 8 16
h 1.17826 6 8 ack 40 ------- 1 6.0 0.0 8 25
r 1.18116 2 7 ack 40 ------- 2 5.0 7.0 0 21
+ 1.18116 7 2 tcp 1040 ------- 2 7.0 5.0 1 26
- 1.18116 7 2 tcp 1040 ------- 2 7.0 5.0 1 26
+ 1.18116 7 2 tcp 1040 ------- 2 7.0 5.0 2 27
+ 1.18396 1 8 tcp 1040 ------- 1 0.0 6.0 14 23
- 1.18396 1 8 tcp 1040 ------- 1 0.0 6.0 14 23
r 1.18658 8 6 tcp 1040 ------- 1 0.0 6.0 9 17
h 1.18658 6 8 ack 40 ------- 1 6.0 0.0 9 28
- 1.18948 7 2 tcp 1040 ------- 2 7.0 5.0 2 27
r 1.1949 8 6 tcp 1040 ------- 1 0.0 6.0 10 18
h 1.1949 6 8 ack 40 ------- 1 6.0 0.0 10 29
r 1.19948 7 2 tcp 1040 ------- 2 7.0 5.0 1 26
h 1.19948 2 8 tcp 1040 ------- 2 7.0 5.0 1 26
r 1.20322 8 6 tcp 1040 ------- 1 0.0 6.0 11 19
h 1.20322 6 8 ack 40 ------- 1 6.0 0.0 11 30
r 1.2078 7 2 tcp 1040 ------- 2 7.0 5.0 2 27
h 1.2078 2 8 tcp 1040 ------- 2 7.0 5.0 2 27
+ 1.20994 6 8 ack 40 ------- 1 6.0 0.0 7 24
- 1.20994 6 8 ack 40 ------- 1 6.0 0.0 7 24
r 1.21154 8 6 tcp 1040 ------- 1 0.0 6.0 12 20
h 1.21154 6 8 ack 40 ------- 1 6.0 0.0 12 31
+ 1.21826 6 8 ack 40 ------- 1 6.0 0.0 8 25
- 1.21826 6 8 ack 40 ------- 1 6.0 0.0 8 25
r 1.21986 8 6 tcp 1040 ------- 1 0.0 6.0 13 22
h 1.21986 6 8 ack 40 ------- 1 6.0 0.0 13 32
+ 1.22658 6 8 ack 40 ------- 1 6.0 0.0 9 28
- 1.22658 6 8 ack 40 ------- 1 6.0 0.0 9 28
r 1.22818 8 6 tcp 1040 ------- 1 0.0 6.0 14 23
h 1.22818 6 8 ack 40 ------- 1 6.0 0.0 14 33
+ 1.2349 6 8 ack 40 ------- 1 6.0 0.0 10 29
- 1.2349 6 8 ack 40 ------- 1 6.0 0.0 10 29
+ 1.23948 2 8 tcp 1040 ------- 2 7.0 5.0 1 26
- 1.23948 2 8 tcp 1040 ------- 2 7.0 5.0 1 26
+ 1.24322 6 8 ack 40 ------- 1 6.0 0.0 11 30
- 1.24322 6 8 ack 40 ------- 1 6.0 0.0 11 30
+ 1.2478 2 8 tcp 1040 ------- 2 7.0 5.0 2 27
- 1.2478 2 8 tcp 1040 ------- 2 7.0 5.0 2 27
r 1.2502 8 1 ack 40 ------- 1 6.0 0.0 7 24
+ 1.2502 1 0 ack 40 ------- 1 6.0 0.0 7 24
- 1.2502 1 0 ack 40 ------- 1 6.0 0.0 7 24
+ 1.25154 6 8 ack 40 ------- 1 6.0 0.0 12 31
- 1.25154 6 8 ack 40 ------- 1 6.0 0.0 12 31
r 1.25852 8 1 ack 40 ------- 1 6.0 0.0 8 25
+ 1.25852 1 0 ack 40 ------- 1 6.0 0.0 8 25
- 1.25852 1 0 ack 40 ------- 1 6.0 0.0 8 25
+ 1.25986 6 8 ack 40 ------- 1 6.0 0.0 13 32
- 1.25986 6 8 ack 40 ------- 1 6.0 0.0 13 32
r 1.26052 1 0 ack 40 ------- 1 6.0 0.0 7 24
+ 1.26052 0 1 tcp 1040 ------- 1 0.0 6.0 15 34
- 1.26052 0 1 tcp 1040 ------- 1 0.0 6.0 15 34
+ 1.26052 0 1 tcp 1040 ------- 1 0.0 6.0 16 35
r 1.26684 8 1 ack 40 ------- 1 6.0 0.0 9 28
+ 1.26684 1 0 ack 40 ------- 1 6.0 0.0 9 28
- 1.26684 1 0 ack 40 ------- 1 6.0 0.0 9 28
+ 1.26818 6 8 ack 40 ------- 1 6.0 0.0 14 33
- 1.26818 6 8 ack 40 ------- 1 6.0 0.0 14 33
r 1.26884 1 0 ack 40 ------- 1 6.0 0.0 8 25
+ 1.26884 0 1 tcp 1040 ------- 1 0.0 6.0 17 36
+ 1.26884 0 1 tcp 1040 ------- 1 0.0 6.0 18 37
- 1.26884 0 1 tcp 1040 ------- 1 0.0 6.0 16 35
r 1.27516 8 1 ack 40 ------- 1 6.0 0.0 10 29
+ 1.27516 1 0 ack 40 ------- 1 6.0 0.0 10 29
- 1.27516 1 0 ack 40 ------- 1 6.0 0.0 10 29
r 1.27716 1 0 ack 40 ------- 1 6.0 0.0 9 28
+ 1.27716 0 1 tcp 1040 ------- 1 0.0 6.0 19 38
+ 1.27716 0 1 tcp 1040 ------- 1 0.0 6.0 20 39
- 1.27716 0 1 tcp 1040 ------- 1 0.0 6.0 17 36
r 1.27884 0 1 tcp 1040 ------- 1 0.0 6.0 15 34
h 1.27884 1 8 tcp 1040 ------- 1 0.0 6.0 15 34
r 1.2837 8 5 tcp 1040 ------- 2 7.0 5.0 1 26
h 1.2837 5 8 ack 40 ------- 2 5.0 7.0 1 40
r 1.284008 8 1 ack 40 ------- 1 6.0 0.0 11 30
+ 1.284008 1 0 ack 40 ------- 1 6.0 0.0 11 30
- 1.284008 1 0 ack 40 ------- 1 6.0 0.0 11 30
r 1.28548 1 0 ack 40 ------- 1 6.0 0.0 10 29
+ 1.28548 0 1 tcp 1040 ------- 1 0.0 6.0 21 41
+ 1.28548 0 1 tcp 1040 ------- 1 0.0 6.0 22 42
- 1.28548 0 1 tcp 1040 ------- 1 0.0 6.0 18 37
r 1.28716 0 1 tcp 1040 ------- 1 0.0 6.0 16 35
h 1.28716 1 8 tcp 1040 ------- 1 0.0 6.0 16 35
r 1.29202 8 5 tcp 1040 ------- 2 7.0 5.0 2 27
h 1.29202 5 8 ack 40 ------- 2 5.0 7.0 2 43
r 1.292328 8 1 ack 40 ------- 1 6.0 0.0 12 31
+ 1.292328 1 0 ack 40 ------- 1 6.0 0.0 12 31
- 1.292328 1 0 ack 40 ------- 1 6.0 0.0 12 31
- 1.2938 0 1 tcp 1040 ------- 1 0.0 6.0 19 38
r 1.294328 1 0 ack 40 ------- 1 6.0 0.0 11 30
+ 1.294328 0 1 tcp 1040 ------- 1 0.0 6.0 23 44
+ 1.294328 0 1 tcp 1040 ------- 1 0.0 6.0 24 45
r 1.29548 0 1 tcp 1040 ------- 1 0.0 6.0 17 36
h 1.29548 1 8 tcp 1040 ------- 1 0.0 6.0 17 36
r 1.30012 8 1 ack 40 ------- 1 6.0 0.0 13 32
+ 1.30012 1 0 ack 40 ------- 1 6.0 0.0 13 32
- 1.30012 1 0 ack 40 ------- 1 6.0 0.0 13 32
- 1.30212 0 1 tcp 1040 ------- 1 0.0 6.0 20 39
r 1.302648 1 0 ack 40 ------- 1 6.0 0.0 12 31
+ 1.302648 0 1 tcp 1040 ------- 1 0.0 6.0 25 46
+ 1.302648 0 1 tcp 1040 ------- 1 0.0 6.0 26 47
r 1.3038 0 1 tcp 1040 ------- 1 0.0 6.0 18 37
h 1.3038 1 8 tcp 1040 ------- 1 0.0 6.0 18 37
r 1.30844 8 1 ack 40 ------- 1 6.0 0.0 14 33
+ 1.30844 1 0 ack 40 ------- 1 6.0 0.0 14 33
- 1.30844 1 0 ack 40 ------- 1 6.0 0.0 14 33
r 1.31044 1 0 ack 40 ------- 1 6.0 0.0 13 32
+ 1.31044 0 1 tcp 1040 ------- 1 0.0 6.0 27 48
+ 1.31044 0 1 tcp 1040 ------- 1 0.0 6.0 28 49
- 1.31044 0 1 tcp 1040 ------- 1 0.0 6.0 21 41
r 1.31212 0 1 tcp 1040 ------- 1 0.0 6.0 19 38
h 1.31212 1 8 tcp 1040 ------- 1 0.0 6.0 19 38
r 1.31876 1 0 ack 40 ------- 1 6.0 0.0 14 33
+ 1.31876 0 1 tcp 1040 ------- 1 0.0 6.0 29 50
+ 1.31876 0 1 tcp 1040 ------- 1 0.0 6.0 30 51
- 1.31876 0 1 tcp 1040 ------- 1 0.0 6.0 22 42
+ 1.31884 1 8 tcp 1040 ------- 1 0.0 6.0 15 34
- 1.31884 1 8 tcp 1040 ------- 1 0.0 6.0 15 34
r 1.32044 0 1 tcp 1040 ------- 1 0.0 6.0 20 39
h 1.32044 1 8 tcp 1040 ------- 1 0.0 6.0 20 39
+ 1.3237 5 8 ack 40 ------- 2 5.0 7.0 1 40
- 1.3237 5 8 ack 40 ------- 2 5.0 7.0 1 40
- 1.32708 0 1 tcp 1040 ------- 1 0.0 6.0 23 44
+ 1.32716 1 8 tcp 1040 ------- 1 0.0 6.0 16 35
- 1.32716 1 8 tcp 1040 ------- 1 0.0 6.0 16 35
r 1.32876 0 1 tcp 1040 ------- 1 0.0 6.0 21 41
h 1.32876 1 8 tcp 1040 ------- 1 0.0 6.0 21 41
+ 1.33202 5 8 ack 40 ------- 2 5.0 7.0 2 43
- 1.33202 5 8 ack 40 ------- 2 5.0 7.0 2 43
- 1.3354 0 1 tcp 1040 ------- 1 0.0 6.0 24 45
+ 1.33548 1 8 tcp 1040 ------- 1 0.0 6.0 17 36
- 1.33548 1 8 tcp 1040 ------- 1 0.0 6.0 17 36
r 1.33708 0 1 tcp 1040 ------- 1 0.0 6.0 22 42
h 1.33708 1 8 tcp 1040 ------- 1 0.0 6.0 22 42
- 1.34372 0 1 tcp 1040 ------- 1 0.0 6.0 25 46
+ 1.3438 1 8 tcp 1040 ------- 1 0.0 6.0 18 37
- 1.3438 1 8 tcp 1040 ------- 1 0.0 6.0 18 37
r 1.3454 0 1 tcp 1040 ------- 1 0.0 6.0 23 44
h 1.3454 1 8 tcp 1040 ------- 1 0.0 6.0 23 44
- 1.35204 0 1 tcp 1040 ------- 1 0.0 6.0 26 47
+ 1.35212 1 8 tcp 1040 ------- 1 0.0 6.0 19 38
- 1.35212 1 8 tcp 1040 ------- 1 0.0 6.0 19 38
r 1.35372 0 1 tcp 1040 ------- 1 0.0 6.0 24 45
h 1.35372 1 8 tcp 1040 ------- 1 0.0 6.0 24 45
- 1.36036 0 1 tcp 1040 ------- 1 0.0 6.0 27 48
+ 1.36044 1 8 tcp 1040 ------- 1 0.0 6.0 20 39
- 1.36044 1 8 tcp 1040 ------- 1 0.0 6.0 20 39
r 1.36204 0 1 tcp 1040 ------- 1 0.0 6.0 25 46
h 1.36204 1 8 tcp 1040 ------- 1 0.0 6.0 25 46
r 1.36306 8 6 tcp 1040 ------- 1 0.0 6.0 15 34
h 1.36306 6 8 ack 40 ------- 1 6.0 0.0 15 52
r 1.36396 8 2 ack 40 ------- 2 5.0 7.0 1 40
+ 1.36396 2 7 ack 40 ------- 2 5.0 7.0 1 40
- 1.36396 2 7 ack 40 ------- 2 5.0 7.0 1 40
- 1.36868 0 1 tcp 1040 ------- 1 0.0 6.0 28 49
+ 1.36876 1 8 tcp 1040 ------- 1 0.0 6.0 21 41
- 1.36876 1 8 tcp 1040 ------- 1 0.0 6.0 21 41
r 1.37036 0 1 tcp 1040 ------- 1 0.0 6.0 26 47
h 1.37036 1 8 tcp 1040 ------- 1 0.0 6.0 26 47
r 1.37138 8 6 tcp 1040 ------- 1 0.0 6.0 16 35
h 1.37138 6 8 ack 40 ------- 1 6.0 0.0 16 53
r 1.37228 8 2 ack 40 ------- 2 5.0 7.0 2 43
+ 1.37228 2 7 ack 40 ------- 2 5.0 7.0 2 43
- 1.37228 2 7 ack 40 ------- 2 5.0 7.0 2 43
r 1.37428 2 7 ack 40 ------- 2 5.0 7.0 1 40
+ 1.37428 7 2 tcp 1040 ------- 2 7.0 5.0 3 54
- 1.37428 7 2 tcp 1040 ------- 2 7.0 5.0 3 54
+ 1.37428 7 2 tcp 1040 ------- 2 7.0 5.0 4 55
- 1.377 0 1 tcp 1040 ------- 1 0.0 6.0 29 50
+ 1.37708 1 8 tcp 1040 ------- 1 0.0 6.0 22 42
- 1.37708 1 8 tcp 1040 ------- 1 0.0 6.0 22 42
r 1.37868 0 1 tcp 1040 ------- 1 0.0 6.0 27 48
h 1.37868 1 8 tcp 1040 ------- 1 0.0 6.0 27 48
r 1.3797 8 6 tcp 1040 ------- 1 0.0 6.0 17 36
h 1.3797 6 8 ack 40 ------- 1 6.0 0.0 17 56
r 1.3826 2 7 ack 40 ------- 2 5.0 7.0 2 43
+ 1.3826 7 2 tcp 1040 ------- 2 7.0 5.0 5 57
+ 1.3826 7 2 tcp 1040 ------- 2 7.0 5.0 6 58
- 1.3826 7 2 tcp 1040 ------- 2 7.0 5.0 4 55
- 1.38532 0 1 tcp 1040 ------- 1 0.0 6.0 30 51
+ 1.3854 1 8 tcp 1040 ------- 1 0.0 6.0 23 44
- 1.3854 1 8 tcp 1040 ------- 1 0.0 6.0 23 44
r 1.387 0 1 tcp 1040 ------- 1 0.0 6.0 28 49
h 1.387 1 8 tcp 1040 ------- 1 0.0 6.0 28 49
r 1.38802 8 6 tcp 1040 ------- 1 0.0 6.0 18 37
h 1.38802 6 8 ack 40 ------- 1 6.0 0.0 18 59
- 1.39092 7 2 tcp 1040 ------- 2 7.0 5.0 5 57
r 1.3926 7 2 tcp 1040 ------- 2 7.0 5.0 3 54
h 1.3926 2 8 tcp 1040 ------- 2 7.0 5.0 3 54
+ 1.39372 1 8 tcp 1040 ------- 1 0.0 6.0 24 45
- 1.39372 1 8 tcp 1040 ------- 1 0.0 6.0 24 45
r 1.39532 0 1 tcp 1040 ------- 1 0.0 6.0 29 50
h 1.39532 1 8 tcp 1040 ------- 1 0.0 6.0 29 50
r 1.39634 8 6 tcp 1040 ------- 1 0.0 6.0 19 38
h 1.39634 6 8 ack 40 ------- 1 6.0 0.0 19 60
- 1.39924 7 2 tcp 1040 ------- 2 7.0 5.0 6 58
r 1.40092 7 2 tcp 1040 ------- 2 7.0 5.0 4 55
h 1.40092 2 8 tcp 1040 ------- 2 7.0 5.0 4 55
+ 1.40204 1 8 tcp 1040 ------- 1 0.0 6.0 25 46
- 1.40204 1 8 tcp 1040 ------- 1 0.0 6.0 25 46
+ 1.40306 6 8 ack 40 ------- 1 6.0 0.0 15 52
- 1.40306 6 8 ack 40 ------- 1 6.0 0.0 15 52
r 1.40364 0 1 tcp 1040 ------- 1 0.0 6.0 30 51
h 1.40364 1 8 tcp 1040 ------- 1 0.0 6.0 30 51
r 1.40466 8 6 tcp 1040 ------- 1 0.0 6.0 20 39
h 1.40466 6 8 ack 40 ------- 1 6.0 0.0 20 61
r 1.40924 7 2 tcp 1040 ------- 2 7.0 5.0 5 57
h 1.40924 2 8 tcp 1040 ------- 2 7.0 5.0 5 57
+ 1.41036 1 8 tcp 1040 ------- 1 0.0 6.0 26 47
- 1.41036 1 8 tcp 1040 ------- 1 0.0 6.0 26 47
+ 1.41138 6 8 ack 40 ------- 1 6.0 0.0 16 53
- 1.41138 6 8 ack 40 ------- 1 6.0 0.0 16 53
r 1.41298 8 6 tcp 1040 ------- 1 0.0 6.0 21 41
h 1.41298 6 8 ack 40 ------- 1 6.0 0.0 21 62
r 1.41756 7 2 tcp 1040 ------- 2 7.0 5.0 6 58
h 1.41756 2 8 tcp 1040 ------- 2 7.0 5.0 6 58
+ 1.41868 1 8 tcp 1040 ------- 1 0.0 6.0 27 48
- 1.41868 1 8 tcp 1040 ------- 1 0.0 6.0 27 48
+ 1.4197 6 8 ack 40 ------- 1 6.0 0.0 17 56
- 1.4197 6 8 ack 40 ------- 1 6.0 0.0 17 56
r 1.4213 8 6 tcp 1040 ------- 1 0.0 6.0 22 42
h 1.4213 6 8 ack 40 ------- 1 6.0 0.0 22 63
+ 1.427 1 8 tcp 1040 ------- 1 0.0 6.0 28 49
- 1.427 1 8 tcp 1040 ------- 1 0.0 6.0 28 49
+ 1.42802 6 8 ack 40 ------- 1 6.0 0.0 18 59
- 1.42802 6 8 ack 40 ------- 1 6.0 0.0 18 59
r 1.42962 8 6 tcp 1040 ------- 1 0.0 6.0 23 44
h 1.42962 6 8 ack 40 ------- 1 6.0 0.0 23 64
+ 1.4326 2 8 tcp 1040 ------- 2 7.0 5.0 3 54
- 1.4326 2 8 tcp 1040 ------- 2 7.0 5.0 3 54
+ 1.43532 1 8 tcp 1040 ------- 1 0.0 6.0 29 50
- 1.43532 1 8 tcp 1040 ------- 1 0.0 6.0 29 50
+ 1.43634 6 8 ack 40 ------- 1 6.0 0.0 19 60
- 1.43634 6 8 ack 40 ------- 1 6.0 0.0 19 60
r 1.43794 8 6 tcp 1040 ------- 1 0.0 6.0 24 45
h 1.43794 6 8 ack 40 ------- 1 6.0 0.0 24 65
+ 1.44092 2 8 tcp 1040 ------- 2 7.0 5.0 4 55
- 1.44092 2 8 tcp 1040 ------- 2 7.0 5.0 4 55
+ 1.44364 1 8 tcp 1040 ------- 1 0.0 6.0 30 51
- 1.44364 1 8 tcp 1040 ------- 1 0.0 6.0 30 51
+ 1.44466 6 8 ack 40 ------- 1 6.0 0.0 20 61
- 1.44466 6 8 ack 40 ------- 1 6.0 0.0 20 61
r 1.44626 8 6 tcp 1040 ------- 1 0.0 6.0 25 46
h 1.44626 6 8 ack 40 ------- 1 6.0 0.0 25 66
r 1.446568 8 1 ack 40 ------- 1 6.0 0.0 15 52
+ 1.446568 1 0 ack 40 ------- 1 6.0 0.0 15 52
- 1.446568 1 0 ack 40 ------- 1 6.0 0.0 15 52
+ 1.44924 2 8 tcp 1040 ------- 2 7.0 5.0 5 57
- 1.44924 2 8 tcp 1040 ------- 2 7.0 5.0 5 57
+ 1.45298 6 8 ack 40 ------- 1 6.0 0.0 21 62
r 1.45458 8 6 tcp 1040 ------- 1 0.0 6.0 26 47
h 1.45458 6 8 ack 40 ------- 1 6.0 0.0 26 67
r 1.454888 8 1 ack 40 ------- 1 6.0 0.0 16 53
+ 1.454888 1 0 ack 40 ------- 1 6.0 0.0 16 53
- 1.454888 1 0 ack 40 ------- 1 6.0 0.0 16 53
- 1.45508 6 8 ack 40 ------- 1 6.0 0.0 21 62
r 1.456888 1 0 ack 40 ------- 1 6.0 0.0 15 52
+ 1.456888 0 1 tcp 1040 ------- 1 0.0 6.0 31 68
- 1.456888 0 1 tcp 1040 ------- 1 0.0 6.0 31 68
+ 1.456888 0 1 tcp 1040 ------- 1 0.0 6.0 32 69
+ 1.45756 2 8 tcp 1040 ------- 2 7.0 5.0 6 58
- 1.45756 2 8 tcp 1040 ------- 2 7.0 5.0 6 58
+ 1.4613 6 8 ack 40 ------- 1 6.0 0.0 22 63
- 1.4613 6 8 ack 40 ------- 1 6.0 0.0 22 63
r 1.4629 8 6 tcp 1040 ------- 1 0.0 6.0 27 48
h 1.4629 6 8 ack 40 ------- 1 6.0 0.0 27 70
r 1.463208 8 1 ack 40 ------- 1 6.0 0.0 17 56
+ 1.463208 1 0 ack 40 ------- 1 6.0 0.0 17 56
- 1.463208 1 0 ack 40 ------- 1 6.0 0.0 17 56
r 1.465208 1 0 ack 40 ------- 1 6.0 0.0 16 53
+ 1.465208 0 1 tcp 1040 ------- 1 0.0 6.0 33 71
+ 1.465208 0 1 tcp 1040 ------- 1 0.0 6.0 34 72
- 1.465208 0 1 tcp 1040 ------- 1 0.0 6.0 32 69
+ 1.46962 6 8 ack 40 ------- 1 6.0 0.0 23 64
- 1.46962 6 8 ack 40 ------- 1 6.0 0.0 23 64
r 1.47122 8 6 tcp 1040 ------- 1 0.0 6.0 28 49
h 1.47122 6 8 ack 40 ------- 1 6.0 0.0 28 73
r 1.471528 8 1 ack 40 ------- 1 6.0 0.0 18 59
+ 1.471528 1 0 ack 40 ------- 1 6.0 0.0 18 59
- 1.471528 1 0 ack 40 ------- 1 6.0 0.0 18 59
r 1.473528 1 0 ack 40 ------- 1 6.0 0.0 17 56
+ 1.473528 0 1 tcp 1040 ------- 1 0.0 6.0 35 74
+ 1.473528 0 1 tcp 1040 ------- 1 0.0 6.0 36 75
- 1.473528 0 1 tcp 1040 ------- 1 0.0 6.0 33 71
r 1.475208 0 1 tcp 1040 ------- 1 0.0 6.0 31 68
h 1.475208 1 8 tcp 1040 ------- 1 0.0 6.0 31 68
r 1.47682 8 5 tcp 1040 ------- 2 7.0 5.0 3 54
h 1.47682 5 8 ack 40 ------- 2 5.0 7.0 3 76
r 1.477196 8 1 ack 40 ------- 1 6.0 0.0 19 60
+ 1.477196 1 0 ack 40 ------- 1 6.0 0.0 19 60
- 1.477196 1 0 ack 40 ------- 1 6.0 0.0 19 60
+ 1.47794 6 8 ack 40 ------- 1 6.0 0.0 24 65
- 1.47794 6 8 ack 40 ------- 1 6.0 0.0 24 65
r 1.481464 8 6 tcp 1040 ------- 1 0.0 6.0 29 50
h 1.481464 6 8 ack 40 ------- 1 6.0 0.0 29 77
r 1.481848 1 0 ack 40 ------- 1 6.0 0.0 18 59
+ 1.481848 0 1 tcp 1040 ------- 1 0.0 6.0 37 78
+ 1.481848 0 1 tcp 1040 ------- 1 0.0 6.0 38 79
- 1.481848 0 1 tcp 1040 ------- 1 0.0 6.0 34 72
r 1.483528 0 1 tcp 1040 ------- 1 0.0 6.0 32 69
h 1.483528 1 8 tcp 1040 ------- 1 0.0 6.0 32 69
r 1.485732 8 5 tcp 1040 ------- 2 7.0 5.0 4 55
h 1.485732 5 8 ack 40 ------- 2 5.0 7.0 4 80
+ 1.48626 6 8 ack 40 ------- 1 6.0 0.0 25 66
- 1.48626 6 8 ack 40 ------- 1 6.0 0.0 25 66
r 1.487516 1 0 ack 40 ------- 1 6.0 0.0 19 60
+ 1.487516 0 1 tcp 1040 ------- 1 0.0 6.0 39 81
- 1.490168 0 1 tcp 1040 ------- 1 0.0 6.0 35 74
r 1.490392 8 6 tcp 1040 ------- 1 0.0 6.0 30 51
h 1.490392 6 8 ack 40 ------- 1 6.0 0.0 30 82
r 1.491848 0 1 tcp 1040 ------- 1 0.0 6.0 33 71
h 1.491848 1 8 tcp 1040 ------- 1 0.0 6.0 33 71
+ 1.49458 6 8 ack 40 ------- 1 6.0 0.0 26 67
- 1.49458 6 8 ack 40 ------- 1 6.0 0.0 26 67
r 1.494728 8 5 tcp 1040 ------- 2 7.0 5.0 5 57
h 1.494728 5 8 ack 40 ------- 2 5.0 7.0 5 83
r 1.495036 8 1 ack 40 ------- 1 6.0 0.0 20 61
+ 1.495036 1 0 ack 40 ------- 1 6.0 0.0 20 61
- 1.495036 1 0 ack 40 ------- 1 6.0 0.0 20 61
r 1.49534 8 1 ack 40 ------- 1 6.0 0.0 21 62
+ 1.49534 1 0 ack 40 ------- 1 6.0 0.0 21 62
- 1.495356 1 0 ack 40 ------- 1 6.0 0.0 21 62
- 1.498488 0 1 tcp 1040 ------- 1 0.0 6.0 36 75
r 1.500168 0 1 tcp 1040 ------- 1 0.0 6.0 34 72
h 1.500168 1 8 tcp 1040 ------- 1 0.0 6.0 34 72
r 1.50178 8 5 tcp 1040 ------- 2 7.0 5.0 6 58
h 1.50178 5 8 ack 40 ------- 2 5.0 7.0 6 84
r 1.502088 8 1 ack 40 ------- 1 6.0 0.0 22 63
+ 1.502088 1 0 ack 40 ------- 1 6.0 0.0 22 63
- 1.502088 1 0 ack 40 ------- 1 6.0 0.0 22 63
+ 1.5029 6 8 ack 40 ------- 1 6.0 0.0 27 70
- 1.5029 6 8 ack 40 ------- 1 6.0 0.0 27 70
r 1.505356 1 0 ack 40 ------- 1 6.0 0.0 20 61
+ 1.505356 0 1 tcp 1040 ------- 1 0.0 6.0 40 85
r 1.505676 1 0 ack 40 ------- 1 6.0 0.0 21 62
+ 1.505676 0 1 tcp 1040 ------- 1 0.0 6.0 41 86
- 1.506808 0 1 tcp 1040 ------- 1 0.0 6.0 37 78
r 1.508488 0 1 tcp 1040 ------- 1 0.0 6.0 35 74
h 1.508488 1 8 tcp 1040 ------- 1 0.0 6.0 35 74
r 1.50988 8 1 ack 40 ------- 1 6.0 0.0 23 64
+ 1.50988 1 0 ack 40 ------- 1 6.0 0.0 23 64
- 1.50988 1 0 ack 40 ------- 1 6.0 0.0 23 64
+ 1.51122 6 8 ack 40 ------- 1 6.0 0.0 28 73
- 1.51122 6 8 ack 40 ------- 1 6.0 0.0 28 73
r 1.512408 1 0 ack 40 ------- 1 6.0 0.0 22 63
+ 1.512408 0 1 tcp 1040 ------- 1 0.0 6.0 42 87
- 1.515128 0 1 tcp 1040 ------- 1 0.0 6.0 38 79
+ 1.515208 1 8 tcp 1040 ------- 1 0.0 6.0 31 68
- 1.515208 1 8 tcp 1040 ------- 1 0.0 6.0 31 68
r 1.516808 0 1 tcp 1040 ------- 1 0.0 6.0 36 75
h 1.516808 1 8 tcp 1040 ------- 1 0.0 6.0 36 75
+ 1.51682 5 8 ack 40 ------- 2 5.0 7.0 3 76
- 1.51682 5 8 ack 40 ------- 2 5.0 7.0 3 76
r 1.5182 8 1 ack 40 ------- 1 6.0 0.0 24 65
+ 1.5182 1 0 ack 40 ------- 1 6.0 0.0 24 65
- 1.5182 1 0 ack 40 ------- 1 6.0 0.0 24 65
r 1.5202 1 0 ack 40 ------- 1 6.0 0.0 23 64
+ 1.5202 0 1 tcp 1040 ------- 1 0.0 6.0 43 88
+ 1.521464 6 8 ack 40 ------- 1 6.0 0.0 29 77
- 1.521464 6 8 ack 40 ------- 1 6.0 0.0 29 77
- 1.523448 0 1 tcp 1040 ------- 1 0.0 6.0 39 81
+ 1.523528 1 8 tcp 1040 ------- 1 0.0 6.0 32 69
- 1.523528 1 8 tcp 1040 ------- 1 0.0 6.0 32 69
r 1.525128 0 1 tcp 1040 ------- 1 0.0 6.0 37 78
h 1.525128 1 8 tcp 1040 ------- 1 0.0 6.0 37 78
+ 1.525732 5 8 ack 40 ------- 2 5.0 7.0 4 80
- 1.525732 5 8 ack 40 ------- 2 5.0 7.0 4 80
r 1.52652 8 1 ack 40 ------- 1 6.0 0.0 25 66
+ 1.52652 1 0 ack 40 ------- 1 6.0 0.0 25 66
- 1.52652 1 0 ack 40 ------- 1 6.0 0.0 25 66
r 1.52852 1 0 ack 40 ------- 1 6.0 0.0 24 65
+ 1.52852 0 1 tcp 1040 ------- 1 0.0 6.0 44 89
+ 1.530392 6 8 ack 40 ------- 1 6.0 0.0 30 82
- 1.530392 6 8 ack 40 ------- 1 6.0 0.0 30 82
- 1.531768 0 1 tcp 1040 ------- 1 0.0 6.0 40 85
+ 1.531848 1 8 tcp 1040 ------- 1 0.0 6.0 33 71
- 1.531848 1 8 tcp 1040 ------- 1 0.0 6.0 33 71
r 1.533448 0 1 tcp 1040 ------- 1 0.0 6.0 38 79
h 1.533448 1 8 tcp 1040 ------- 1 0.0 6.0 38 79
+ 1.534728 5 8 ack 40 ------- 2 5.0 7.0 5 83
- 1.534728 5 8 ack 40 ------- 2 5.0 7.0 5 83
r 1.53484 8 1 ack 40 ------- 1 6.0 0.0 26 67
+ 1.53484 1 0 ack 40 ------- 1 6.0 0.0 26 67
- 1.53484 1 0 ack 40 ------- 1 6.0 0.0 26 67
r 1.53684 1 0 ack 40 ------- 1 6.0 0.0 25 66
+ 1.53684 0 1 tcp 1040 ------- 1 0.0 6.0 45 90
- 1.540088 0 1 tcp 1040 ------- 1 0.0 6.0 41 86
+ 1.540168 1 8 tcp 1040 ------- 1 0.0 6.0 34 72
- 1.540168 1 8 tcp 1040 ------- 1 0.0 6.0 34 72
r 1.541768 0 1 tcp 1040 ------- 1 0.0 6.0 39 81
h 1.541768 1 8 tcp 1040 ------- 1 0.0 6.0 39 81
+ 1.54178 5 8 ack 40 ------- 2 5.0 7.0 6 84
- 1.54178 5 8 ack 40 ------- 2 5.0 7.0 6 84
r 1.54316 8 1 ack 40 ------- 1 6.0 0.0 27 70
+ 1.54316 1 0 ack 40 ------- 1 6.0 0.0 27 70
- 1.54316 1 0 ack 40 ------- 1 6.0 0.0 27 70
r 1.54516 1 0 ack 40 ------- 1 6.0 0.0 26 67
+ 1.54516 0 1 tcp 1040 ------- 1 0.0 6.0 46 91
- 1.548408 0 1 tcp 1040 ------- 1 0.0 6.0 42 87
+ 1.548488 1 8 tcp 1040 ------- 1 0.0 6.0 35 74
- 1.548488 1 8 tcp 1040 ------- 1 0.0 6.0 35 74
r 1.550088 0 1 tcp 1040 ------- 1 0.0 6.0 40 85
h 1.550088 1 8 tcp 1040 ------- 1 0.0 6.0 40 85
r 1.55148 8 1 ack 40 ------- 1 6.0 0.0 28 73
+ 1.55148 1 0 ack 40 ------- 1 6.0 0.0 28 73
- 1.55148 1 0 ack 40 ------- 1 6.0 0.0 28 73
r 1.55348 1 0 ack 40 ------- 1 6.0 0.0 27 70
+ 1.55348 0 1 tcp 1040 ------- 1 0.0 6.0 47 92
- 1.556728 0 1 tcp 1040 ------- 1 0.0 6.0 43 88
+ 1.556808 1 8 tcp 1040 ------- 1 0.0 6.0 36 75
- 1.556808 1 8 tcp 1040 ------- 1 0.0 6.0 36 75
r 1.558408 0 1 tcp 1040 ------- 1 0.0 6.0 41 86
h 1.558408 1 8 tcp 1040 ------- 1 0.0 6.0 41 86
r 1.559428 8 6 tcp 1040 ------- 1 0.0 6.0 31 68
h 1.559428 6 8 ack 40 ------- 1 6.0 0.0 31 93
r 1.559736 8 2 ack 40 ------- 2 5.0 7.0 3 76
+ 1.559736 2 7 ack 40 ------- 2 5.0 7.0 3 76
- 1.559736 2 7 ack 40 ------- 2 5.0 7.0 3 76
r 1.561724 8 1 ack 40 ------- 1 6.0 0.0 29 77
+ 1.561724 1 0 ack 40 ------- 1 6.0 0.0 29 77
- 1.561724 1 0 ack 40 ------- 1 6.0 0.0 29 77
r 1.5618 1 0 ack 40 ------- 1 6.0 0.0 28 73
+ 1.5618 0 1 tcp 1040 ------- 1 0.0 6.0 48 94
- 1.565048 0 1 tcp 1040 ------- 1 0.0 6.0 44 89
+ 1.565128 1 8 tcp 1040 ------- 1 0.0 6.0 37 78
- 1.565128 1 8 tcp 1040 ------- 1 0.0 6.0 37 78
r 1.566728 0 1 tcp 1040 ------- 1 0.0 6.0 42 87
h 1.566728 1 8 tcp 1040 ------- 1 0.0 6.0 42 87
r 1.567748 8 6 tcp 1040 ------- 1 0.0 6.0 32 69
h 1.567748 6 8 ack 40 ------- 1 6.0 0.0 32 95
r 1.568056 8 2 ack 40 ------- 2 5.0 7.0 4 80
+ 1.568056 2 7 ack 40 ------- 2 5.0 7.0 4 80
- 1.568056 2 7 ack 40 ------- 2 5.0 7.0 4 80
r 1.570056 2 7 ack 40 ------- 2 5.0 7.0 3 76
+ 1.570056 7 2 tcp 1040 ------- 2 7.0 5.0 7 96
- 1.570056 7 2 tcp 1040 ------- 2 7.0 5.0 7 96
+ 1.570056 7 2 tcp 1040 ------- 2 7.0 5.0 8 97
r 1.570652 8 1 ack 40 ------- 1 6.0 0.0 30 82
+ 1.570652 1 0 ack 40 ------- 1 6.0 0.0 30 82
- 1.570652 1 0 ack 40 ------- 1 6.0 0.0 30 82
r 1.572044 1 0 ack 40 ------- 1 6.0 0.0 29 77
+ 1.572044 0 1 tcp 1040 ------- 1 0.0 6.0 49 98
- 1.573368 0 1 tcp 1040 ------- 1 0.0 6.0 45 90
+ 1.573448 1 8 tcp 1040 ------- 1 0.0 6.0 38 79
- 1.573448 1 8 tcp 1040 ------- 1 0.0 6.0 38 79
r 1.575048 0 1 tcp 1040 ------- 1 0.0 6.0 43 88
h 1.575048 1 8 tcp 1040 ------- 1 0.0 6.0 43 88
r 1.576068 8 6 tcp 1040 ------- 1 0.0 6.0 33 71
h 1.576068 6 8 ack 40 ------- 1 6.0 0.0 33 99
r 1.576376 8 2 ack 40 ------- 2 5.0 7.0 5 83
+ 1.576376 2 7 ack 40 ------- 2 5.0 7.0 5 83
- 1.576376 2 7 ack 40 ------- 2 5.0 7.0 5 83
r 1.578376 2 7 ack 40 ------- 2 5.0 7.0 4 80
+ 1.578376 7 2 tcp 1040 ------- 2 7.0 5.0 9 100
+ 1.578376 7 2 tcp 1040 ------- 2 7.0 5.0 10 101
- 1.578376 7 2 tcp 1040 ------- 2 7.0 5.0 8 97
r 1.580972 1 0 ack 40 ------- 1 6.0 0.0 30 82
+ 1.580972 0 1 tcp 1040 ------- 1 0.0 6.0 50 102
- 1.581688 0 1 tcp 1040 ------- 1 0.0 6.0 46 91
+ 1.581768 1 8 tcp 1040 ------- 1 0.0 6.0 39 81
- 1.581768 1 8 tcp 1040 ------- 1 0.0 6.0 39 81
r 1.583368 0 1 tcp 1040 ------- 1 0.0 6.0 44 89
h 1.583368 1 8 tcp 1040 ------- 1 0.0 6.0 44 89
r 1.584388 8 6 tcp 1040 ------- 1 0.0 6.0 34 72
h 1.584388 6 8 ack 40 ------- 1 6.0 0.0 34 103
r 1.584696 8 2 ack 40 ------- 2 5.0 7.0 6 84
+ 1.584696 2 7 ack 40 ------- 2 5.0 7.0 6 84
- 1.584696 2 7 ack 40 ------- 2 5.0 7.0 6 84
r 1.586696 2 7 ack 40 ------- 2 5.0 7.0 5 83
+ 1.586696 7 2 tcp 1040 ------- 2 7.0 5.0 11 104
+ 1.586696 7 2 tcp 1040 ------- 2 7.0 5.0 12 105
- 1.586696 7 2 tcp 1040 ------- 2 7.0 5.0 9 100
r 1.588376 7 2 tcp 1040 ------- 2 7.0 5.0 7 96
h 1.588376 2 8 tcp 1040 ------- 2 7.0 5.0 7 96
- 1.590008 0 1 tcp 1040 ------- 1 0.0 6.0 47 92
+ 1.590088 1 8 tcp 1040 ------- 1 0.0 6.0 40 85
- 1.590088 1 8 tcp 1040 ------- 1 0.0 6.0 40 85
r 1.591688 0 1 tcp 1040 ------- 1 0.0 6.0 45 90
h 1.591688 1 8 tcp 1040 ------- 1 0.0 6.0 45 90
r 1.592708 8 6 tcp 1040 ------- 1 0.0 6.0 35 74
h 1.592708 6 8 ack 40 ------- 1 6.0 0.0 35 106
r 1.595016 2 7 ack 40 ------- 2 5.0 7.0 6 84
+ 1.595016 7 2 tcp 1040 ------- 2 7.0 5.0 13 107
+ 1.595016 7 2 tcp 1040 ------- 2 7.0 5.0 14 108
- 1.595016 7 2 tcp 1040 ------- 2 7.0 5.0 10 101
r 1.596696 7 2 tcp 1040 ------- 2 7.0 5.0 8 97
h 1.596696 2 8 tcp 1040 ------- 2 7.0 5.0 8 97
- 1.598328 0 1 tcp 1040 ------- 1 0.0 6.0 48 94
+ 1.598408 1 8 tcp 1040 ------- 1 0.0 6.0 41 86
- 1.598408 1 8 tcp 1040 ------- 1 0.0 6.0 41 86
+ 1.599428 6 8 ack 40 ------- 1 6.0 0.0 31 93
- 1.599428 6 8 ack 40 ------- 1 6.0 0.0 31 93
r 1.600008 0 1 tcp 1040 ------- 1 0.0 6.0 46 91
h 1.600008 1 8 tcp 1040 ------- 1 0.0 6.0 46 91
r 1.601028 8 6 tcp 1040 ------- 1 0.0 6.0 36 75
h 1.601028 6 8 ack 40 ------- 1 6.0 0.0 36 109
- 1.603336 7 2 tcp 1040 ------- 2 7.0 5.0 11 104