V -t * -v 1.0a5 -a 0
A -t * -n 1 -p 0 -o 0x7fffffff -c 30 -a 1
A -t * -h 1 -m 1073741823 -s 0
c -t * -i 1 -n Red
c -t * -i 2 -n Blue
n -t * -a 4 -s 4 -S UP -v circle -c black -i black
n -t * -a 0 -s 0 -S UP -v circle -c Red -i Red
n -t * -a 5 -s 5 -S UP -v circle -c Green -i Green
n -t * -a 1 -s 1 -S UP -v circle -c black -i black
n -t * -a 6 -s 6 -S UP -v circle -c Orange -i Orange
n -t * -a 2 -s 2 -S UP -v circle -c black -i black
n -t * -a 7 -s 7 -S UP -v circle -c Blue -i Blue
n -t * -a 3 -s 3 -S UP -v circle -c black -i black
l -t * -s 0 -d 1 -S UP -r 1000000 -D 0.01 -c black -o right
l -t * -s 7 -d 2 -S UP -r 1000000 -D 0.01 -c black -o right
X -t * -n 8 -r 2Mb -D 40ms -o left
L -t * -s 8 -d 1 -o up
L -t * -s 8 -d 2 -o down
L -t * -s 8 -d 3 -o up
L -t * -s 8 -d 4 -o down
L -t * -s 8 -d 5 -o up
L -t * -s 8 -d 6 -o down
+ -t 0.5 -s 0 -d 1 -p tcp -e 40 -c 1 -i 0 -a 1 -x {0.0 6.0 0 ------- null}
- -t 0.5 -s 0 -d 1 -p tcp -e 40 -c 1 -i 0 -a 1 -x {0.0 6.0 0 ------- null}
h -t 0.5 -s 0 -d 1 -p tcp -e 40 -c 1 -i 0 -a 1 -x {0.0 6.0 -1 ------- null}
r -t 0.51032 -s 0 -d 1 -p tcp -e 40 -c 1 -i 0 -a 1 -x {0.0 6.0 0 ------- null}
h -t 0.51032 -s 1 -d 8 -p tcp -e 40 -c 1 -i 0 -a 1 -x {0.0 6.0 0 ------- null}
+ -t 0.55032 -s 1 -d 8 -p tcp -e 40 -c 1 -i 0 -a 1 -x {0.0 6.0 0 ------- null}
- -t 0.55032 -s 1 -d 8 -p tcp -e 40 -c 1 -i 0 -a 1 -x {0.0 6.0 0 ------- null}
h -t 0.55032 -s 1 -d 8 -p tcp -e 40 -c 1 -i 0 -a 1 -x {0.0 6.0 -1 ------- null}
r -t 0.59058 -s 8 -d 6 -p tcp -e 40 -c 1 -i 0 -a 1 -x {0.0 6.0 0 ------- null}
h -t 0.59058 -s 6 -d 8 -p ack -e 40 -c 1 -i 1 -a 1 -x {6.0 0.0 0 ------- null}
+ -t 0.63058 -s 6 -d 8 -p ack -e 40 -c 1 -i 1 -a 1 -x {6.0 0.0 0 ------- null}
- -t 0.63058 -s 6 -d 8 -p ack -e 40 -c 1 -i 1 -a 1 -x {6.0 0.0 0 ------- null}
h -t 0.63058 -s 6 -d 8 -p ack -e 40 -c 1 -i 1 -a 1 -x {6.0 0.0 -1 ------- null}
r -t 0.67084 -s 8 -d 1 -p ack -e 40 -c 1 -i 1 -a 1 -x {6.0 0.0 0 ------- null}
+ -t 0.67084 -s 1 -d 0 -p ack -e 40 -c 1 -i 1 -a 1 -x {6.0 0.0 0 ------- null}
- -t 0.67084 -s 1 -d 0 -p ack -e 40 -c 1 -i 1 -a 1 -x {6.0 0.0 0 ------- null}
h -t 0.67084 -s 1 -d 0 -p ack -e 40 -c 1 -i 1 -a 1 -x {6.0 0.0 -1 ------- null}
r -t 0.68116 -s 1 -d 0 -p ack -e 40 -c 1 -i 1 -a 1 -x {6.0 0.0 0 ------- null}
+ -t 0.68116 -s 0 -d 1 -p tcp -e 1040 -c 1 -i 2 -a 1 -x {0.0 6.0 1 ------- null}
- -t 0.68116 -s 0 -d 1 -p tcp -e 1040 -c 1 -i 2 -a 1 -x {0.0 6.0 1 ------- null}
h -t 0.68116 -s 0 -d 1 -p tcp -e 1040 -c 1 -i 2 -a 1 -x {0.0 6.0 -1 ------- null}
+ -t 0.68116 -s 0 -d 1 -p tcp -e 1040 -c 1 -i 3 -a 1 -x {0.0 6.0 2 ------- null}
- -t 0.68948 -s 0 -d 1 -p tcp -e 1040 -c 1 -i 3 -a 1 -x {0.0 6.0 2 ------- null}
h -t 0.68948 -s 0 -d 1 -p tcp -e 1040 -c 1 -i 3 -a 1 -x {0.0 6.0 -1 ------- null}
r -t 0.69948 -s 0 -d 1 -p tcp -e 1040 -c 1 -i 2 -a 1 -x {0.0 6.0 1 ------- null}
h -t 0.69948 -s 1 -d 8 -p tcp -e 1040 -c 1 -i 2 -a 1 -x {0.0 6.0 1 ------- null}
r -t 0.7078 -s 0 -d 1 -p tcp -e 1040 -c 1 -i 3 -a 1 -x {0.0 6.0 2 ------- null}
h -t 0.7078 -s 1 -d 8 -p tcp -e 1040 -c 1 -i 3 -a 1 -x {0.0 6.0 2 ------- null}
+ -t 0.73948 -s 1 -d 8 -p tcp -e 1040 -c 1 -i 2 -a 1 -x {0.0 6.0 1 ------- null}
- -t 0.73948 -s 1 -d 8 -p tcp -e 1040 -c 1 -i 2 -a 1 -x {0.0 6.0 1 ------- null}
h -t 0.73948 -s 1 -d 8 -p tcp -e 1040 -c 1 -i 2 -a 1 -x {0.0 6.0 -1 ------- null}
+ -t 0.7478 -s 1 -d 8 -p tcp -e 1040 -c 1 -i 3 -a 1 -x {0.0 6.0 2 ------- null}
- -t 0.7478 -s 1 -d 8 -p tcp -e 1040 -c 1 -i 3 -a 1 -x {0.0 6.0 2 ------- null}
h -t 0.7478 -s 1 -d 8 -p tcp -e 1040 -c 1 -i 3 -a 1 -x {0.0 6.0 -1 ------- null}
r -t 0.7837 -s 8 -d 6 -p tcp -e 1040 -c 1 -i 2 -a 1 -x {0.0 6.0 1 ------- null}
h -t 0.7837 -s 6 -d 8 -p ack -e 40 -c 1 -i 4 -a 1 -x {6.0 0.0 1 ------- null}
r -t 0.79202 -s 8 -d 6 -p tcp -e 1040 -c 1 -i 3 -a 1 -x {0.0 6.0 2 ------- null}
h -t 0.79202 -s 6 -d 8 -p ack -e 40 -c 1 -i 5 -a 1 -x {6.0 0.0 2 ------- null}
+ -t 0.8237 -s 6 -d 8 -p ack -e 40 -c 1 -i 4 -a 1 -x {6.0 0.0 1 ------- null}
- -t 0.8237 -s 6 -d 8 -p ack -e 40 -c 1 -i 4 -a 1 -x {6.0 0.0 1 ------- null}
h -t 0.8237 -s 6 -d 8 -p ack -e 40 -c 1 -i 4 -a 1 -x {6.0 0.0 -1 ------- null}
+ -t 0.83202 -s 6 -d 8 -p ack -e 40 -c 1 -i 5 -a 1 -x {6.0 0.0 2 ------- null}
- -t 0.83202 -s 6 -d 8 -p ack -e 40 -c 1 -i 5 -a 1 -x {6.0 0.0 2 ------- null}
h -t 0.83202 -s 6 -d 8 -p ack -e 40 -c 1 -i 5 -a 1 -x {6.0 0.0 -1 ------- null}
r -t 0.86396 -s 8 -d 1 -p ack -e 40 -c 1 -i 4 -a 1 -x {6.0 0.0 1 ------- null}
+ -t 0.86396 -s 1 -d 0 -p ack -e 40 -c 1 -i 4 -a 1 -x {6.0 0.0 1 ------- null}
- -t 0.86396 -s 1 -d 0 -p ack -e 40 -c 1 -i 4 -a 1 -x {6.0 0.0 1 ------- null}
h -t 0.86396 -s 1 -d 0 -p ack -e 40 -c 1 -i 4 -a 1 -x {6.0 0.0 -1 ------- null}
r -t 0.87228 -s 8 -d 1 -p ack -e 40 -c 1 -i 5 -a 1 -x {6.0 0.0 2 ------- null}
+ -t 0.87228 -s 1 -d 0 -p ack -e 40 -c 1 -i 5 -a 1 -x {6.0 0.0 2 ------- null}
- -t 0.87228 -s 1 -d 0 -p ack -e 40 -c 1 -i 5 -a 1 -x {6.0 0.0 2 ------- null}
h -t 0.87228 -s 1 -d 0 -p ack -e 40 -c 1 -i 5 -a 1 -x {6.0 0.0 -1 ------- null}
r -t 0.87428 -s 1 -d 0 -p ack -e 40 -c 1 -i 4 -a 1 -x {6.0 0.0 1 ------- null}
+ -t 0.87428 -s 0 -d 1 -p tcp -e 1040 -c 1 -i 6 -a 1 -x {0.0 6.0 3 ------- null}
- -t 0.87428 -s 0 -d 1 -p tcp -e 1040 -c 1 -i 6 -a 1 -x {0.0 6.0 3 ------- null}
h -t 0.87428 -s 0 -d 1 -p tcp -e 1040 -c 1 -i 6 -a 1 -x {0.0 6.0 -1 ------- null}
+ -t 0.87428 -s 0 -d 1 -p tcp -e 1040 -c 1 -i 7 -a 1 -x {0.0 6.0 4 ------- null}
r -t 0.8826 -s 1 -d 0 -p ack -e 40 -c 1 -i 5 -a 1 -x {6.0 0.0 2 ------- null}
+ -t 0.8826 -s 0 -d 1 -p tcp -e 1040 -c 1 -i 8 -a 1 -x {0.0 6.0 5 ------- null}
d -t 0.8826 -s 0 -d 1 -p tcp -e 1040 -c 1 -i 8 -a 1 -x {0.0 6.0 5 ------- null}
+ -t 0.8826 -s 0 -d 1 -p tcp -e 1040 -c 1 -i 9 -a 1 -x {0.0 6.0 6 ------- null}
d -t 0.8826 -s 0 -d 1 -p tcp -e 1040 -c 1 -i 9 -a 1 -x {0.0 6.0 6 ------- null}
- -t 0.8826 -s 0 -d 1 -p tcp -e 1040 -c 1 -i 7 -a 1 -x {0.0 6.0 4 ------- null}
h -t 0.8826 -s 0 -d 1 -p tcp -e 1040 -c 1 -i 7 -a 1 -x {0.0 6.0 -1 ------- null}
r -t 0.8926 -s 0 -d 1 -p tcp -e 1040 -c 1 -i 6 -a 1 -x {0.0 6.0 3 ------- null}
h -t 0.8926 -s 1 -d 8 -p tcp -e 1040 -c 1 -i 6 -a 1 -x {0.0 6.0 3 ------- null}
r -t 0.90092 -s 0 -d 1 -p tcp -e 1040 -c 1 -i 7 -a 1 -x {0.0 6.0 4 ------- null}
h -t 0.90092 -s 1 -d 8 -p tcp -e 1040 -c 1 -i 7 -a 1 -x {0.0 6.0 4 ------- null}
+ -t 0.9326 -s 1 -d 8 -p tcp -e 1040 -c 1 -i 6 -a 1 -x {0.0 6.0 3 ------- null}
- -t 0.9326 -s 1 -d 8 -p tcp -e 1040 -c 1 -i 6 -a 1 -x {0.0 6.0 3 ------- null}
h -t 0.9326 -s 1 -d 8 -p tcp -e 1040 -c 1 -i 6 -a 1 -x {0.0 6.0 -1 ------- null}
+ -t 0.94092 -s 1 -d 8 -p tcp -e 1040 -c 1 -i 7 -a 1 -x {0.0 6.0 4 ------- null}
- -t 0.94092 -s 1 -d 8 -p tcp -e 1040 -c 1 -i 7 -a 1 -x {0.0 6.0 4 ------- null}
h -t 0.94092 -s 1 -d 8 -p tcp -e 1040 -c 1 -i 7 -a 1 -x {0.0 6.0 -1 ------- null}
r -t 0.97682 -s 8 -d 6 -p tcp -e 1040 -c 1 -i 6 -a 1 -x {0.0 6.0 3 ------- null}
h -t 0.97682 -s 6 -d 8 -p ack -e 40 -c 1 -i 10 -a 1 -x {6.0 0.0 3 ------- null}
r -t 0.98514 -s 8 -d 6 -p tcp -e 1040 -c 1 -i 7 -a 1 -x {0.0 6.0 4 ------- null}
h -t 0.98514 -s 6 -d 8 -p ack -e 40 -c 1 -i 11 -a 1 -x {6.0 0.0 4 ------- null}
+ -t 1 -s 7 -d 2 -p cbr -e 210 -c 2 -i 12 -a 2 -x {7.0 5.0 0 ------- null}
- -t 1 -s 7 -d 2 -p cbr -e 210 -c 2 -i 12 -a 2 -x {7.0 5.0 0 ------- null}
h -t 1 -s 7 -d 2 -p cbr -e 210 -c 2 -i 12 -a 2 -x {7.0 5.0 -1 ------- null}
+ -t 1.005 -s 7 -d 2 -p cbr -e 210 -c 2 -i 13 -a 2 -x {7.0 5.0 1 ------- null}
- -t 1.005 -s 7 -d 2 -p cbr -e 210 -c 2 -i 13 -a 2 -x {7.0 5.0 1 ------- null}
h -t 1.005 -s 7 -d 2 -p cbr -e 210 -c 2 -i 13 -a 2 -x {7.0 5.0 -1 ------- null}
+ -t 1.01 -s 7 -d 2 -p cbr -e 210 -c 2 -i 14 -a 2 -x {7.0 5.0 2 ------- null}
- -t 1.01 -s 7 -d 2 -p cbr -e 210 -c 2 -i 14 -a 2 -x {7.0 5.0 2 ------- null}
h -t 1.01 -s 7 -d 2 -p cbr -e 210 -c 2 -i 14 -a 2 -x {7.0 5.0 -1 ------- null}
r -t 1.01168 -s 7 -d 2 -p cbr -e 210 -c 2 -i 12 -a 2 -x {7.0 5.0 0 ------- null}
h -t 1.01168 -s 2 -d 8 -p cbr -e 210 -c 2 -i 12 -a 2 -x {7.0 5.0 0 ------- null}
+ -t 1.015 -s 7 -d 2 -p cbr -e 210 -c 2 -i 15 -a 2 -x {7.0 5.0 3 ------- null}
- -t 1.015 -s 7 -d 2 -p cbr -e 210 -c 2 -i 15 -a 2 -x {7.0 5.0 3 ------- null}
h -t 1.015 -s 7 -d 2 -p cbr -e 210 -c 2 -i 15 -a 2 -x {7.0 5.0 -1 ------- null}
r -t 1.01668 -s 7 -d 2 -p cbr -e 210 -c 2 -i 13 -a 2 -x {7.0 5.0 1 ------- null}
h -t 1.01668 -s 2 -d 8 -p cbr -e 210 -c 2 -i 13 -a 2 -x {7.0 5.0 1 ------- null}
+ -t 1.01682 -s 6 -d 8 -p ack -e 40 -c 1 -i 10 -a 1 -x {6.0 0.0 3 ------- null}
- -t 1.01682 -s 6 -d 8 -p ack -e 40 -c 1 -i 10 -a 1 -x {6.0 0.0 3 ------- null}
h -t 1.01682 -s 6 -d 8 -p ack -e 40 -c 1 -i 10 -a 1 -x {6.0 0.0 -1 ------- null}
+ -t 1.02 -s 7 -d 2 -p cbr -e 210 -c 2 -i 16 -a 2 -x {7.0 5.0 4 ------- null}
- -t 1.02 -s 7 -d 2 -p cbr -e 210 -c 2 -i 16 -a 2 -x {7.0 5.0 4 ------- null}
h -t 1.02 -s 7 -d 2 -p cbr -e 210 -c 2 -i 16 -a 2 -x {7.0 5.0 -1 ------- null}
r -t 1.02168 -s 7 -d 2 -p cbr -e 210 -c 2 -i 14 -a 2 -x {7.0 5.0 2 ------- null}
h -t 1.02168 -s 2 -d 8 -p cbr -e 210 -c 2 -i 14 -a 2 -x {7.0 5.0 2 ------- null}
+ -t 1.025 -s 7 -d 2 -p cbr -e 210 -c 2 -i 17 -a 2 -x {7.0 5.0 5 ------- null}
- -t 1.025 -s 7 -d 2 -p cbr -e 210 -c 2 -i 17 -a 2 -x {7.0 5.0 5 ------- null}
h -t 1.025 -s 7 -d 2 -p cbr -e 210 -c 2 -i 17 -a 2 -x {7.0 5.0 -1 ------- null}
+ -t 1.02514 -s 6 -d 8 -p ack -e 40 -c 1 -i 11 -a 1 -x {6.0 0.0 4 ------- null}
- -t 1.02514 -s 6 -d 8 -p ack -e 40 -c 1 -i 11 -a 1 -x {6.0 0.0 4 ------- null}
h -t 1.02514 -s 6 -d 8 -p ack -e 40 -c 1 -i 11 -a 1 -x {6.0 0.0 -1 ------- null}
r -t 1.02668 -s 7 -d 2 -p cbr -e 210 -c 2 -i 15 -a 2 -x {7.0 5.0 3 ------- null}
h -t 1.02668 -s 2 -d 8 -p cbr -e 210 -c 2 -i 15 -a 2 -x {7.0 5.0 3 ------- null}
+ -t 1.03 -s 7 -d 2 -p cbr -e 210 -c 2 -i 18 -a 2 -x {7.0 5.0 6 ------- null}
- -t 1.03 -s 7 -d 2 -p cbr -e 210 -c 2 -i 18 -a 2 -x {7.0 5.0 6 ------- null}
h -t 1.03 -s 7 -d 2 -p cbr -e 210 -c 2 -i 18 -a 2 -x {7.0 5.0 -1 ------- null}
r -t 1.03168 -s 7 -d 2 -p cbr -e 210 -c 2 -i 16 -a 2 -x {7.0 5.0 4 ------- null}
h -t 1.03168 -s 2 -d 8 -p cbr -e 210 -c 2 -i 16 -a 2 -x {7.0 5.0 4 ------- null}
+ -t 1.035 -s 7 -d 2 -p cbr -e 210 -c 2 -i 19 -a 2 -x {7.0 5.0 7 ------- null}
- -t 1.035 -s 7 -d 2 -p cbr -e 210 -c 2 -i 19 -a 2 -x {7.0 5.0 7 ------- null}
h -t 1.035 -s 7 -d 2 -p cbr -e 210 -c 2 -i 19 -a 2 -x {7.0 5.0 -1 ------- null}
r -t 1.03668 -s 7 -d 2 -p cbr -e 210 -c 2 -i 17 -a 2 -x {7.0 5.0 5 ------- null}
h -t 1.03668 -s 2 -d 8 -p cbr -e 210 -c 2 -i 17 -a 2 -x {7.0 5.0 5 ------- null}
+ -t 1.04 -s 7 -d 2 -p cbr -e 210 -c 2 -i 20 -a 2 -x {7.0 5.0 8 ------- null}
- -t 1.04 -s 7 -d 2 -p cbr -e 210 -c 2 -i 20 -a 2 -x {7.0 5.0 8 ------- null}
h -t 1.04 -s 7 -d 2 -p cbr -e 210 -c 2 -i 20 -a 2 -x {7.0 5.0 -1 ------- null}
r -t 1.04168 -s 7 -d 2 -p cbr -e 210 -c 2 -i 18 -a 2 -x {7.0 5.0 6 ------- null}
h -t 1.04168 -s 2 -d 8 -p cbr -e 210 -c 2 -i 18 -a 2 -x {7.0 5.0 6 ------- null}
+ -t 1.045 -s 7 -d 2 -p cbr -e 210 -c 2 -i 21 -a 2 -x {7.0 5.0 9 ------- null}
- -t 1.045 -s 7 -d 2 -p cbr -e 210 -c 2 -i 21 -a 2 -x {7.0 5.0 9 ------- null}
h -t 1.045 -s 7 -d 2 -p cbr -e 210 -c 2 -i 21 -a 2 -x {7.0 5.0 -1 ------- null}
r -t 1.04668 -s 7 -d 2 -p cbr -e 210 -c 2 -i 19 -a 2 -x {7.0 5.0 7 ------- null}
h -t 1.04668 -s 2 -d 8 -p cbr -e 210 -c 2 -i 19 -a 2 -x {7.0 5.0 7 ------- null}
+ -t 1.05 -s 7 -d 2 -p cbr -e 210 -c 2 -i 22 -a 2 -x {7.0 5.0 10 ------- null}
- -t 1.05 -s 7 -d 2 -p cbr -e 210 -c 2 -i 22 -a 2 -x {7.0 5.0 10 ------- null}
h -t 1.05 -s 7 -d 2 -p cbr -e 210 -c 2 -i 22 -a 2 -x {7.0 5.0 -1 ------- null}
r -t 1.05168 -s 7 -d 2 -p cbr -e 210 -c 2 -i 20 -a 2 -x {7.0 5.0 8 ------- null}
h -t 1.05168 -s 2 -d 8 -p cbr -e 210 -c 2 -i 20 -a 2 -x {7.0 5.0 8 ------- null}
+ -t 1.05168 -s 2 -d 8 -p cbr -e 210 -c 2 -i 12 -a 2 -x {7.0 5.0 0 ------- null}
- -t 1.05168 -s 2 -d 8 -p cbr -e 210 -c 2 -i 12 -a 2 -x {7.0 5.0 0 ------- null}
h -t 1.05168 -s 2 -d 8 -p cbr -e 210 -c 2 -i 12 -a 2 -x {7.0 5.0 -1 ------- null}
+ -t 1.055 -s 7 -d 2 -p cbr -e 210 -c 2 -i 23 -a 2 -x {7.0 5.0 11 ------- null}
- -t 1.055 -s 7 -d 2 -p cbr -e 210 -c 2 -i 23 -a 2 -x {7.0 5.0 11 ------- null}
h -t 1.055 -s 7 -d 2 -p cbr -e 210 -c 2 -i 23 -a 2 -x {7.0 5.0 -1 ------- null}
r -t 1.05668 -s 7 -d 2 -p cbr -e 210 -c 2 -i 21 -a 2 -x {7.0 5.0 9 ------- null}
h -t 1.05668 -s 2 -d 8 -p cbr -e 210 -c 2 -i 21 -a 2 -x {7.0 5.0 9 ------- null}
+ -t 1.05668 -s 2 -d 8 -p cbr -e 210 -c 2 -i 13 -a 2 -x {7.0 5.0 1 ------- null}
- -t 1.05668 -s 2 -d 8 -p cbr -e 210 -c 2 -i 13 -a 2 -x {7.0 5.0 1 ------- null}
h -t 1.05668 -s 2 -d 8 -p cbr -e 210 -c 2 -i 13 -a 2 -x {7.0 5.0 -1 ------- null}
r -t 1.05708 -s 8 -d 1 -p ack -e 40 -c 1 -i 10 -a 1 -x {6.0 0.0 3 ------- null}
+ -t 1.05708 -s 1 -d 0 -p ack -e 40 -c 1 -i 10 -a 1 -x {6.0 0.0 3 ------- null}
- -t 1.05708 -s 1 -d 0 -p ack -e 40 -c 1 -i 10 -a 1 -x {6.0 0.0 3 ------- null}
h -t 1.05708 -s 1 -d 0 -p ack -e 40 -c 1 -i 10 -a 1 -x {6.0 0.0 -1 ------- null}
+ -t 1.06 -s 7 -d 2 -p cbr -e 210 -c 2 -i 24 -a 2 -x {7.0 5.0 12 ------- null}
- -t 1.06 -s 7 -d 2 -p cbr -e 210 -c 2 -i 24 -a 2 -x {7.0 5.0 12 ------- null}
h -t 1.06 -s 7 -d 2 -p cbr -e 210 -c 2 -i 24 -a 2 -x {7.0 5.0 -1 ------- null}
r -t 1.06168 -s 7 -d 2 -p cbr -e 210 -c 2 -i 22 -a 2 -x {7.0 5.0 10 ------- null}
h -t 1.06168 -s 2 -d 8 -p cbr -e 210 -c 2 -i 22 -a 2 -x {7.0 5.0 10 ------- null}
+ -t 1.06168 -s 2 -d 8 -p cbr -e 210 -c 2 -i 14 -a 2 -x {7.0 5.0 2 ------- null}
- -t 1.06168 -s 2 -d 8 -p cbr -e 210 -c 2 -i 14 -a 2 -x {7.0 5.0 2 ------- null}
h -t 1.06168 -s 2 -d 8 -p cbr -e 210 -c 2 -i 14 -a 2 -x {7.0 5.0 -1 ------- null}
+ -t 1.065 -s 7 -d 2 -p cbr -e 210 -c 2 -i 25 -a 2 -x {7.0 5.0 13 ------- null}
- -t 1.065 -s 7 -d 2 -p cbr -e 210 -c 2 -i 25 -a 2 -x {7.0 5.0 13 ------- null}
h -t 1.065 -s 7 -d 2 -p cbr -e 210 -c 2 -i 25 -a 2 -x {7.0 5.0 -1 ------- null}
r -t 1.0654 -s 8 -d 1 -p ack -e 40 -c 1 -i 11 -a 1 -x {6.0 0.0 4 ------- null}
+ -t 1.0654 -s 1 -d 0 -p ack -e 40 -c 1 -i 11 -a 1 -x {6.0 0.0 4 ------- null}
- -t 1.0654 -s 1 -d 0 -p ack -e 40 -c 1 -i 11 -a 1 -x {6.0 0.0 4 ------- null}
h -t 1.0654 -s 1 -d 0 -p ack -e 40 -c 1 -i 11 -a 1 -x {6.0 0.0 -1 ------- null}
r -t 1.06668 -s 7 -d 2 -p cbr -e 210 -c 2 -i 23 -a 2 -x {7.0 5.0 11 ------- null}
h -t 1.06668 -s 2 -d 8 -p cbr -e 210 -c 2 -i 23 -a 2 -x {7.0 5.0 11 ------- null}
+ -t 1.06668 -s 2 -d 8 -p cbr -e 210 -c 2 -i 15 -a 2 -x {7.0 5.0 3 ------- null}
- -t 1.06668 -s 2 -d 8 -p cbr -e 210 -c 2 -i 15 -a 2 -x {7.0 5.0 3 ------- null}
h -t 1.06668 -s 2 -d 8 -p cbr -e 210 -c 2 -i 15 -a 2 -x {7.0 5.0 -1 ------- null}
r -t 1.0674 -s 1 -d 0 -p ack -e 40 -c 1 -i 10 -a 1 -x {6.0 0.0 3 ------- null}
+ -t 1.0674 -s 0 -d 1 -p tcp -e 1040 -c 1 -i 26 -a 1 -x {0.0 6.0 7 ------- null}
- -t 1.0674 -s 0 -d 1 -p tcp -e 1040 -c 1 -i 26 -a 1 -x {0.0 6.0 7 ------- null}
h -t 1.0674 -s 0 -d 1 -p tcp -e 1040 -c 1 -i 26 -a 1 -x {0.0 6.0 -1 ------- null}
+ -t 1.0674 -s 0 -d 1 -p tcp -e 1040 -c 1 -i 27 -a 1 -x {0.0 6.0 8 ------- null}
+ -t 1.07 -s 7 -d 2 -p cbr -e 210 -c 2 -i 28 -a 2 -x {7.0 5.0 14 ------- null}
- -t 1.07 -s 7 -d 2 -p cbr -e 210 -c 2 -i 28 -a 2 -x {7.0 5.0 14 ------- null}
h -t 1.07 -s 7 -d 2 -p cbr -e 210 -c 2 -i 28 -a 2 -x {7.0 5.0 -1 ------- null}
r -t 1.07168 -s 7 -d 2 -p cbr -e 210 -c 2 -i 24 -a 2 -x {7.0 5.0 12 ------- null}
h -t 1.07168 -s 2 -d 8 -p cbr -e 210 -c 2 -i 24 -a 2 -x {7.0 5.0 12 ------- null}
+ -t 1.07168 -s 2 -d 8 -p cbr -e 210 -c 2 -i 16 -a 2 -x {7.0 5.0 4 ------- null}
- -t 1.07168 -s 2 -d 8 -p cbr -e 210 -c 2 -i 16 -a 2 -x {7.0 5.0 4 ------- null}
h -t 1.07168 -s 2 -d 8 -p cbr -e 210 -c 2 -i 16 -a 2 -x {7.0 5.0 -1 ------- null}
+ -t 1.075 -s 7 -d 2 -p cbr -e 210 -c 2 -i 29 -a 2 -x {7.0 5.0 15 ------- null}
- -t 1.075 -s 7 -d 2 -p cbr -e 210 -c 2 -i 29 -a 2 -x {7.0 5.0 15 ------- null}
h -t 1.075 -s 7 -d 2 -p cbr -e 210 -c 2 -i 29 -a 2 -x {7.0 5.0 -1 ------- null}
r -t 1.07572 -s 1 -d 0 -p ack -e 40 -c 1 -i 11 -a 1 -x {6.0 0.0 4 ------- null}
+ -t 1.07572 -s 0 -d 1 -p tcp -e 1040 -c 1 -i 30 -a 1 -x {0.0 6.0 9 ------- null}
d -t 1.07572 -s 0 -d 1 -p tcp -e 1040 -c 1 -i 30 -a 1 -x {0.0 6.0 9 ------- null}
+ -t 1.07572 -s 0 -d 1 -p tcp -e 1040 -c 1 -i 31 -a 1 -x {0.0 6.0 10 ------- null}
d -t 1.07572 -s 0 -d 1 -p tcp -e 1040 -c 1 -i 31 -a 1 -x {0.0 6.0 10 ------- null}
- -t 1.07572 -s 0 -d 1 -p tcp -e 1040 -c 1 -i 27 -a 1 -x {0.0 6.0 8 ------- null}
h -t 1.07572 -s 0 -d 1 -p tcp -e 1040 -c 1 -i 27 -a 1 -x {0.0 6.0 -1 ------- null}
r -t 1.07668 -s 7 -d 2 -p cbr -e 210 -c 2 -i 25 -a 2 -x {7.0 5.0 13 ------- null}
h -t 1.07668 -s 2 -d 8 -p cbr -e 210 -c 2 -i 25 -a 2 -x {7.0 5.0 13 ------- null}
+ -t 1.07668 -s 2 -d 8 -p cbr -e 210 -c 2 -i 17 -a 2 -x {7.0 5.0 5 ------- null}
- -t 1.07668 -s 2 -d 8 -p cbr -e 210 -c 2 -i 17 -a 2 -x {7.0 5.0 5 ------- null}
h -t 1.07668 -s 2 -d 8 -p cbr -e 210 -c 2 -i 17 -a 2 -x {7.0 5.0 -1 ------- null}
+ -t 1.08 -s 7 -d 2 -p cbr -e 210 -c 2 -i 32 -a 2 -x {7.0 5.0 16 ------- null}
- -t 1.08 -s 7 -d 2 -p cbr -e 210 -c 2 -i 32 -a 2 -x {7.0 5.0 16 ------- null}
h -t 1.08 -s 7 -d 2 -p cbr -e 210 -c 2 -i 32 -a 2 -x {7.0 5.0 -1 ------- null}
r -t 1.08168 -s 7 -d 2 -p cbr -e 210 -c 2 -i 28 -a 2 -x {7.0 5.0 14 ------- null}
h -t 1.08168 -s 2 -d 8 -p cbr -e 210 -c 2 -i 28 -a 2 -x {7.0 5.0 14 ------- null}
+ -t 1.08168 -s 2 -d 8 -p cbr -e 210 -c 2 -i 18 -a 2 -x {7.0 5.0 6 ------- null}
- -t 1.08168 -s 2 -d 8 -p cbr -e 210 -c 2 -i 18 -a 2 -x {7.0 5.0 6 ------- null}
h -t 1.08168 -s 2 -d 8 -p cbr -e 210 -c 2 -i 18 -a 2 -x {7.0 5.0 -1 ------- null}
+ -t 1.085 -s 7 -d 2 -p cbr -e 210 -c 2 -i 33 -a 2 -x {7.0 5.0 17 ------- null}
- -t 1.085 -s 7 -d 2 -p cbr -e 210 -c 2 -i 33 -a 2 -x {7.0 5.0 17 ------- null}
h -t 1.085 -s 7 -d 2 -p cbr -e 210 -c 2 -i 33 -a 2 -x {7.0 5.0 -1 ------- null}
r -t 1.08572 -s 0 -d 1 -p tcp -e 1040 -c 1 -i 26 -a 1 -x {0.0 6.0 7 ------- null}
h -t 1.08572 -s 1 -d 8 -p tcp -e 1040 -c 1 -i 26 -a 1 -x {0.0 6.0 7 ------- null}
r -t 1.08668 -s 7 -d 2 -p cbr -e 210 -c 2 -i 29 -a 2 -x {7.0 5.0 15 ------- null}
h -t 1.08668 -s 2 -d 8 -p cbr -e 210 -c 2 -i 29 -a 2 -x {7.0 5.0 15 ------- null}
+ -t 1.08668 -s 2 -d 8 -p cbr -e 210 -c 2 -i 19 -a 2 -x {7.0 5.0 7 ------- null}
- -t 1.08668 -s 2 -d 8 -p cbr -e 210 -c 2 -i 19 -a 2 -x {7.0 5.0 7 ------- null}
h -t 1.08668 -s 2 -d 8 -p cbr -e 210 -c 2 -i 19 -a 2 -x {7.0 5.0 -1 ------- null}
+ -t 1.09 -s 7 -d 2 -p cbr -e 210 -c 2 -i 34 -a 2 -x {7.0 5.0 18 ------- null}
- -t 1.09 -s 7 -d 2 -p cbr -e 210 -c 2 -i 34 -a 2 -x {7.0 5.0 18 ------- null}
h -t 1.09 -s 7 -d 2 -p cbr -e 210 -c 2 -i 34 -a 2 -x {7.0 5.0 -1 ------- null}
r -t 1.09168 -s 7 -d 2 -p cbr -e 210 -c 2 -i 32 -a 2 -x {7.0 5.0 16 ------- null}
h -t 1.09168 -s 2 -d 8 -p cbr -e 210 -c 2 -i 32 -a 2 -x {7.0 5.0 16 ------- null}
+ -t 1.09168 -s 2 -d 8 -p cbr -e 210 -c 2 -i 20 -a 2 -x {7.0 5.0 8 ------- null}
- -t 1.09168 -s 2 -d 8 -p cbr -e 210 -c 2 -i 20 -a 2 -x {7.0 5.0 8 ------- null}
h -t 1.09168 -s 2 -d 8 -p cbr -e 210 -c 2 -i 20 -a 2 -x {7.0 5.0 -1 ------- null}
r -t 1.09258 -s 8 -d 5 -p cbr -e 210 -c 2 -i 12 -a 2 -x {7.0 5.0 0 ------- null}
r -t 1.09404 -s 0 -d 1 -p tcp -e 1040 -c 1 -i 27 -a 1 -x {0.0 6.0 8 ------- null}
h -t 1.09404 -s 1 -d 8 -p tcp -e 1040 -c 1 -i 27 -a 1 -x {0.0 6.0 8 ------- null}
+ -t 1.095 -s 7 -d 2 -p cbr -e 210 -c 2 -i 35 -a 2 -x {7.0 5.0 19 ------- null}
- -t 1.095 -s 7 -d 2 -p cbr -e 210 -c 2 -i 35 -a 2 -x {7.0 5.0 19 ------- null}
h -t 1.095 -s 7 -d 2 -p cbr -e 210 -c 2 -i 35 -a 2 -x {7.0 5.0 -1 ------- null}
r -t 1.09668 -s 7 -d 2 -p cbr -e 210 -c 2 -i 33 -a 2 -x {7.0 5.0 17 ------- null}
h -t 1.09668 -s 2 -d 8 -p cbr -e 210 -c 2 -i 33 -a 2 -x {7.0 5.0 17 ------- null}
+ -t 1.09668 -s 2 -d 8 -p cbr -e 210 -c 2 -i 21 -a 2 -x {7.0 5.0 9 ------- null}
- -t 1.09668 -s 2 -d 8 -p cbr -e 210 -c 2 -i 21 -a 2 -x {7.0 5.0 9 ------- null}
h -t 1.09668 -s 2 -d 8 -p cbr -e 210 -c 2 -i 21 -a 2 -x {7.0 5.0 -1 ------- null}
r -t 1.09758 -s 8 -d 5 -p cbr -e 210 -c 2 -i 13 -a 2 -x {7.0 5.0 1 ------- null}
+ -t 1.1 -s 7 -d 2 -p cbr -e 210 -c 2 -i 36 -a 2 -x {7.0 5.0 20 ------- null}
- -t 1.1 -s 7 -d 2 -p cbr -e 210 -c 2 -i 36 -a 2 -x {7.0 5.0 20 ------- null}
h -t 1.1 -s 7 -d 2 -p cbr -e 210 -c 2 -i 36 -a 2 -x {7.0 5.0 -1 ------- null}
r -t 1.10168 -s 7 -d 2 -p cbr -e 210 -c 2 -i 34 -a 2 -x {7.0 5.0 18 ------- null}
h -t 1.10168 -s 2 -d 8 -p cbr -e 210 -c 2 -i 34 -a 2 -x {7.0 5.0 18 ------- null}
+ -t 1.10168 -s 2 -d 8 -p cbr -e 210 -c 2 -i 22 -a 2 -x {7.0 5.0 10 ------- null}
- -t 1.10168 -s 2 -d 8 -p cbr -e 210 -c 2 -i 22 -a 2 -x {7.0 5.0 10 ------- null}
h -t 1.10168 -s 2 -d 8 -p cbr -e 210 -c 2 -i 22 -a 2 -x {7.0 5.0 -1 ------- null}
r -t 1.10258 -s 8 -d 5 -p cbr -e 210 -c 2 -i 14 -a 2 -x {7.0 5.0 2 ------- null}
+ -t 1.105 -s 7 -d 2 -p cbr -e 210 -c 2 -i 37 -a 2 -x {7.0 5.0 21 ------- null}
- -t 1.105 -s 7 -d 2 -p cbr -e 210 -c 2 -i 37 -a 2 -x {7.0 5.0 21 ------- null}
h -t 1.105 -s 7 -d 2 -p cbr -e 210 -c 2 -i 37 -a 2 -x {7.0 5.0 -1 ------- null}
r -t 1.10668 -s 7 -d 2 -p cbr -e 210 -c 2 -i 35 -a 2 -x {7.0 5.0 19 ------- null}
h -t 1.10668 -s 2 -d 8 -p cbr -e 210 -c 2 -i 35 -a 2 -x {7.0 5.0 19 ------- null}
+ -t 1.10668 -s 2 -d 8 -p cbr -e 210 -c 2 -i 23 -a 2 -x {7.0 5.0 11 ------- null}
- -t 1.10668 -s 2 -d 8 -p cbr -e 210 -c 2 -i 23 -a 2 -x {7.0 5.0 11 ------- null}
h -t 1.10668 -s 2 -d 8 -p cbr -e 210 -c 2 -i 23 -a 2 -x {7.0 5.0 -1 ------- null}
r -t 1.10758 -s 8 -d 5 -p cbr -e 210 -c 2 -i 15 -a 2 -x {7.0 5.0 3 ------- null}
+ -t 1.11 -s 7 -d 2 -p cbr -e 210 -c 2 -i 38 -a 2 -x {7.0 5.0 22 ------- null}
- -t 1.11 -s 7 -d 2 -p cbr -e 210 -c 2 -i 38 -a 2 -x {7.0 5.0 22 ------- null}
h -t 1.11 -s 7 -d 2 -p cbr -e 210 -c 2 -i 38 -a 2 -x {7.0 5.0 -1 ------- null}
r -t 1.11168 -s 7 -d 2 -p cbr -e 210 -c 2 -i 36 -a 2 -x {7.0 5.0 20 ------- null}
h -t 1.11168 -s 2 -d 8 -p cbr -e 210 -c 2 -i 36 -a 2 -x {7.0 5.0 20 ------- null}
+ -t 1.11168 -s 2 -d 8 -p cbr -e 210 -c 2 -i 24 -a 2 -x {7.0 5.0 12 ------- null}
- -t 1.11168 -s 2 -d 8 -p cbr -e 210 -c 2 -i 24 -a 2 -x {7.0 5.0 12 ------- null}
h -t 1.11168 -s 2 -d 8 -p cbr -e 210 -c 2 -i 24 -a 2 -x {7.0 5.0 -1 ------- null}
r -t 1.11258 -s 8 -d 5 -p cbr -e 210 -c 2 -i 16 -a 2 -x {7.0 5.0 4 ------- null}
+ -t 1.115 -s 7 -d 2 -p cbr -e 210 -c 2 -i 39 -a 2 -x {7.0 5.0 23 ------- null}
- -t 1.115 -s 7 -d 2 -p cbr -e 210 -c 2 -i 39 -a 2 -x {7.0 5.0 23 ------- null}
h -t 1.115 -s 7 -d 2 -p cbr -e 210 -c 2 -i 39 -a 2 -x {7.0 5.0 -1 ------- null}
r -t 1.11668 -s 7 -d 2 -p cbr -e 210 -c 2 -i 37 -a 2 -x {7.0 5.0 21 ------- null}
h -t 1.11668 -s 2 -d 8 -p cbr -e 210 -c 2 -i 37 -a 2 -x {7.0 5.0 21 ------- null}
+ -t 1.11668 -s 2 -d 8 -p cbr -e 210 -c 2 -i 25 -a 2 -x {7.0 5.0 13 ------- null}
- -t 1.11668 -s 2 -d 8 -p cbr -e 210 -c 2 -i 25 -a 2 -x {7.0 5.0 13 ------- null}
h -t 1.11668 -s 2 -d 8 -p cbr -e 210 -c 2 -i 25 -a 2 -x {7.0 5.0 -1 ------- null}
r -t 1.11758 -s 8 -d 5 -p cbr -e 210 -c 2 -i 17 -a 2 -x {7.0 5.0 5 ------- null}
+ -t 1.12 -s 7 -d 2 -p cbr -e 210 -c 2 -i 40 -a 2 -x {7.0 5.0 24 ------- null}
- -t 1.12 -s 7 -d 2 -p cbr -e 210 -c 2 -i 40 -a 2 -x {7.0 5.0 24 ------- null}
h -t 1.12 -s 7 -d 2 -p cbr -e 210 -c 2 -i 40 -a 2 -x {7.0 5.0 -1 ------- null}
r -t 1.12168 -s 7 -d 2 -p cbr -e 210 -c 2 -i 38 -a 2 -x {7.0 5.0 22 ------- null}
h -t 1.12168 -s 2 -d 8 -p cbr -e 210 -c 2 -i 38 -a 2 -x {7.0 5.0 22 ------- null}
+ -t 1.12168 -s 2 -d 8 -p cbr -e 210 -c 2 -i 28 -a 2 -x {7.0 5.0 14 ------- null}
- -t 1.12168 -s 2 -d 8 -p cbr -e 210 -c 2 -i 28 -a 2 -x {7.0 5.0 14 ------- null}
h -t 1.12168 -s 2 -d 8 -p cbr -e 210 -c 2 -i 28 -a 2 -x {7.0 5.0 -1 ------- null}
r -t 1.12258 -s 8 -d 5 -p cbr -e 210 -c 2 -i 18 -a 2 -x {7.0 5.0 6 ------- null}
+ -t 1.125 -s 7 -d 2 -p cbr -e 210 -c 2 -i 41 -a 2 -x {7.0 5.0 25 ------- null}
- -t 1.125 -s 7 -d 2 -p cbr -e 210 -c 2 -i 41 -a 2 -x {7.0 5.0 25 ------- null}
h -t 1.125 -s 7 -d 2 -p cbr -e 210 -c 2 -i 41 -a 2 -x {7.0 5.0 -1 ------- null}
+ -t 1.12572 -s 1 -d 8 -p tcp -e 1040 -c 1 -i 26 -a 1 -x {0.0 6.0 7 ------- null}
- -t 1.12572 -s 1 -d 8 -p tcp -e 1040 -c 1 -i 26 -a 1 -x {0.0 6.0 7 ------- null}
h -t 1.12572 -s 1 -d 8 -p tcp -e 1040 -c 1 -i 26 -a 1 -x {0.0 6.0 -1 ------- null}
r -t 1.12668 -s 7 -d 2 -p cbr -e 210 -c 2 -i 39 -a 2 -x {7.0 5.0 23 ------- null}
h -t 1.12668 -s 2 -d 8 -p cbr -e 210 -c 2 -i 39 -a 2 -x {7.0 5.0 23 ------- null}
+ -t 1.12668 -s 2 -d 8 -p cbr -e 210 -c 2 -i 29 -a 2 -x {7.0 5.0 15 ------- null}
- -t 1.12668 -s 2 -d 8 -p cbr -e 210 -c 2 -i 29 -a 2 -x {7.0 5.0 15 ------- null}
h -t 1.12668 -s 2 -d 8 -p cbr -e 210 -c 2 -i 29 -a 2 -x {7.0 5.0 -1 ------- null}
r -t 1.12758 -s 8 -d 5 -p cbr -e 210 -c 2 -i 19 -a 2 -x {7.0 5.0 7 ------- null}
+ -t 1.13 -s 7 -d 2 -p cbr -e 210 -c 2 -i 42 -a 2 -x {7.0 5.0 26 ------- null}
- -t 1.13 -s 7 -d 2 -p cbr -e 210 -c 2 -i 42 -a 2 -x {7.0 5.0 26 ------- null}
h -t 1.13 -s 7 -d 2 -p cbr -e 210 -c 2 -i 42 -a 2 -x {7.0 5.0 -1 ------- null}
r -t 1.13168 -s 7 -d 2 -p cbr -e 210 -c 2 -i 40 -a 2 -x {7.0 5.0 24 ------- null}
h -t 1.13168 -s 2 -d 8 -p cbr -e 210 -c 2 -i 40 -a 2 -x {7.0 5.0 24 ------- null}
+ -t 1.13168 -s 2 -d 8 -p cbr -e 210 -c 2 -i 32 -a 2 -x {7.0 5.0 16 ------- null}
- -t 1.13168 -s 2 -d 8 -p cbr -e 210 -c 2 -i 32 -a 2 -x {7.0 5.0 16 ------- null}
h -t 1.13168 -s 2 -d 8 -p cbr -e 210 -c 2 -i 32 -a 2 -x {7.0 5.0 -1 ------- null}
r -t 1.13258 -s 8 -d 5 -p cbr -e 210 -c 2 -i 20 -a 2 -x {7.0 5.0 8 ------- null}
+ -t 1.13404 -s 1 -d 8 -p tcp -e 1040 -c 1 -i 27 -a 1 -x {0.0 6.0 8 ------- null}
- -t 1.13404 -s 1 -d 8 -p tcp -e 1040 -c 1 -i 27 -a 1 -x {0.0 6.0 8 ------- null}
h -t 1.13404 -s 1 -d 8 -p tcp -e 1040 -c 1 -i 27 -a 1 -x {0.0 6.0 -1 ------- null}
+ -t 1.135 -s 7 -d 2 -p cbr -e 210 -c 2 -i 43 -a 2 -x {7.0 5.0 27 ------- null}
- -t 1.135 -s 7 -d 2 -p cbr -e 210 -c 2 -i 43 -a 2 -x {7.0 5.0 27 ------- null}
h -t 1.135 -s 7 -d 2 -p cbr -e 210 -c 2 -i 43 -a 2 -x {7.0 5.0 -1 ------- null}
r -t 1.13668 -s 7 -d 2 -p cbr -e 210 -c 2 -i 41 -a 2 -x {7.0 5.0 25 ------- null}
h -t 1.13668 -s 2 -d 8 -p cbr -e 210 -c 2 -i 41 -a 2 -x {7.0 5.0 25 ------- null}
+ -t 1.13668 -s 2 -d 8 -p cbr -e 210 -c 2 -i 33 -a 2 -x {7.0 5.0 17 ------- null}
- -t 1.13668 -s 2 -d 8 -p cbr -e 210 -c 2 -i 33 -a 2 -x {7.0 5.0 17 ------- null}
h -t 1.13668 -s 2 -d 8 -p cbr -e 210 -c 2 -i 33 -a 2 -x {7.0 5.0 -1 ------- null}
r -t 1.13758 -s 8 -d 5 -p cbr -e 210 -c 2 -i 21 -a 2 -x {7.0 5.0 9 ------- null}
+ -t 1.14 -s 7 -d 2 -p cbr -e 210 -c 2 -i 44 -a 2 -x {7.0 5.0 28 ------- null}
- -t 1.14 -s 7 -d 2 -p cbr -e 210 -c 2 -i 44 -a 2 -x {7.0 5.0 28 ------- null}
h -t 1.14 -s 7 -d 2 -p cbr -e 210 -c 2 -i 44 -a 2 -x {7.0 5.0 -1 ------- null}
r -t 1.14168 -s 7 -d 2 -p cbr -e 210 -c 2 -i 42 -a 2 -x {7.0 5.0 26 ------- null}
h -t 1.14168 -s 2 -d 8 -p cbr -e 210 -c 2 -i 42 -a 2 -x {7.0 5.0 26 ------- null}
+ -t 1.14168 -s 2 -d 8 -p cbr -e 210 -c 2 -i 34 -a 2 -x {7.0 5.0 18 ------- null}
- -t 1.14168 -s 2 -d 8 -p cbr -e 210 -c 2 -i 34 -a 2 -x {7.0 5.0 18 ------- null}
h -t 1.14168 -s 2 -d 8 -p cbr -e 210 -c 2 -i 34 -a 2 -x {7.0 5.0 -1 ------- null}
r -t 1.14258 -s 8 -d 5 -p cbr -e 210 -c 2 -i 22 -a 2 -x {7.0 5.0 10 ------- null}
+ -t 1.145 -s 7 -d 2 -p cbr -e 210 -c 2 -i 45 -a 2 -x {7.0 5.0 29 ------- null}
- -t 1.145 -s 7 -d 2 -p cbr -e 210 -c 2 -i 45 -a 2 -x {7.0 5.0 29 ------- null}
h -t 1.145 -s 7 -d 2 -p cbr -e 210 -c 2 -i 45 -a 2 -x {7.0 5.0 -1 ------- null}
r -t 1.14668 -s 7 -d 2 -p cbr -e 210 -c 2 -i 43 -a 2 -x {7.0 5.0 27 ------- null}
h -t 1.14668 -s 2 -d 8 -p cbr -e 210 -c 2 -i 43 -a 2 -x {7.0 5.0 27 ------- null}
+ -t 1.14668 -s 2 -d 8 -p cbr -e 210 -c 2 -i 35 -a 2 -x {7.0 5.0 19 ------- null}
- -t 1.14668 -s 2 -d 8 -p cbr -e 210 -c 2 -i 35 -a 2 -x {7.0 5.0 19 ------- null}
h -t 1.14668 -s 2 -d 8 -p cbr -e 210 -c 2 -i 35 -a 2 -x {7.0 5.0 -1 ------- null}
r -t 1.14758 -s 8 -d 5 -p cbr -e 210 -c 2 -i 23 -a 2 -x {7.0 5.0 11 ------- null}
+ -t 1.15 -s 7 -d 2 -p cbr -e 210 -c 2 -i 46 -a 2 -x {7.0 5.0 30 ------- null}
- -t 1.15 -s 7 -d 2 -p cbr -e 210 -c 2 -i 46 -a 2 -x {7.0 5.0 30 ------- null}
h -t 1.15 -s 7 -d 2 -p cbr -e 210 -c 2 -i 46 -a 2 -x {7.0 5.0 -1 ------- null}
r -t 1.15168 -s 7 -d 2 -p cbr -e 210 -c 2 -i 44 -a 2 -x {7.0 5.0 28 ------- null}
h -t 1.15168 -s 2 -d 8 -p cbr -e 210 -c 2 -i 44 -a 2 -x {7.0 5.0 28 ------- null}
+ -t 1.15168 -s 2 -d 8 -p cbr -e 210 -c 2 -i 36 -a 2 -x {7.0 5.0 20 ------- null}
- -t 1.15168 -s 2 -d 8 -p cbr -e 210 -c 2 -i 36 -a 2 -x {7.0 5.0 20 ------- null}
h -t 1.15168 -s 2 -d 8 -p cbr -e 210 -c 2 -i 36 -a 2 -x {7.0 5.0 -1 ------- null}
r -t 1.15258 -s 8 -d 5 -p cbr -e 210 -c 2 -i 24 -a 2 -x {7.0 5.0 12 ------- null}
+ -t 1.155 -s 7 -d 2 -p cbr -e 210 -c 2 -i 47 -a 2 -x {7.0 5.0 31 ------- null}
- -t 1.155 -s 7 -d 2 -p cbr -e 210 -c 2 -i 47 -a 2 -x {7.0 5.0 31 ------- null}
h -t 1.155 -s 7 -d 2 -p cbr -e 210 -c 2 -i 47 -a 2 -x {7.0 5.0 -1 ------- null}
r -t 1.15668 -s 7 -d 2 -p cbr -e 210 -c 2 -i 45 -a 2 -x {7.0 5.0 29 ------- null}
h -t 1.15668 -s 2 -d 8 -p cbr -e 210 -c 2 -i 45 -a 2 -x {7.0 5.0 29 ------- null}
+ -t 1.15668 -s 2 -d 8 -p cbr -e 210 -c 2 -i 37 -a 2 -x {7.0 5.0 21 ------- null}
- -t 1.15668 -s 2 -d 8 -p cbr -e 210 -c 2 -i 37 -a 2 -x {7.0 5.0 21 ------- null}
h -t 1.15668 -s 2 -d 8 -p cbr -e 210 -c 2 -i 37 -a 2 -x {7.0 5.0 -1 ------- null}
r -t 1.15758 -s 8 -d 5 -p cbr -e 210 -c 2 -i 25 -a 2 -x {7.0 5.0 13 ------- null}
+ -t 1.16 -s 7 -d 2 -p cbr -e 210 -c 2 -i 48 -a 2 -x {7.0 5.0 32 ------- null}
- -t 1.16 -s 7 -d 2 -p cbr -e 210 -c 2 -i 48 -a 2 -x {7.0 5.0 32 ------- null}
h -t 1.16 -s 7 -d 2 -p cbr -e 210 -c 2 -i 48 -a 2 -x {7.0 5.0 -1 ------- null}
r -t 1.16168 -s 7 -d 2 -p cbr -e 210 -c 2 -i 46 -a 2 -x {7.0 5.0 30 ------- null}
h -t 1.16168 -s 2 -d 8 -p cbr -e 210 -c 2 -i 46 -a 2 -x {7.0 5.0 30 ------- null}
+ -t 1.16168 -s 2 -d 8 -p cbr -e 210 -c 2 -i 38 -a 2 -x {7.0 5.0 22 ------- null}
- -t 1.16168 -s 2 -d 8 -p cbr -e 210 -c 2 -i 38 -a 2 -x {7.0 5.0 22 ------- null}
h -t 1.16168 -s 2 -d 8 -p cbr -e 210 -c 2 -i 38 -a 2 -x {7.0 5.0 -1 ------- null}
r -t 1.16258 -s 8 -d 5 -p cbr -e 210 -c 2 -i 28 -a 2 -x {7.0 5.0 14 ------- null}
+ -t 1.165 -s 7 -d 2 -p cbr -e 210 -c 2 -i 49 -a 2 -x {7.0 5.0 33 ------- null}
- -t 1.165 -s 7 -d 2 -p cbr -e 210 -c 2 -i 49 -a 2 -x {7.0 5.0 33 ------- null}
h -t 1.165 -s 7 -d 2 -p cbr -e 210 -c 2 -i 49 -a 2 -x {7.0 5.0 -1 ------- null}