+ 0.5 0 1 tcp 40 ------- 1 0.0 6.0 0 0
- 0.5 0 1 tcp 40 ------- 1 0.0 6.0 0 0
r 0.51032 0 1 tcp 40 ------- 1 0.0 6.0 0 0
h 0.51032 1 8 tcp 40 ------- 1 0.0 6.0 0 0
+ 0.55032 1 8 tcp 40 ------- 1 0.0 6.0 0 0
- 0.55032 1 8 tcp 40 ------- 1 0.0 6.0 0 0
r 0.59058 8 6 tcp 40 ------- 1 0.0 6.0 0 0
h 0.59058 6 8 ack 40 ------- 1 6.0 0.0 0 1
+ 0.63058 6 8 ack 40 ------- 1 6.0 0.0 0 1
- 0.63058 6 8 ack 40 ------- 1 6.0 0.0 0 1
r 0.67084 8 1 ack 40 ------- 1 6.0 0.0 0 1
+ 0.67084 1 0 ack 40 ------- 1 6.0 0.0 0 1
- 0.67084 1 0 ack 40 ------- 1 6.0 0.0 0 1
r 0.68116 1 0 ack 40 ------- 1 6.0 0.0 0 1
+ 0.68116 0 1 tcp 1040 ------- 1 0.0 6.0 1 2
- 0.68116 0 1 tcp 1040 ------- 1 0.0 6.0 1 2
+ 0.68116 0 1 tcp 1040 ------- 1 0.0 6.0 2 3
- 0.68948 0 1 tcp 1040 ------- 1 0.0 6.0 2 3
r 0.69948 0 1 tcp 1040 ------- 1 0.0 6.0 1 2
h 0.69948 1 8 tcp 1040 ------- 1 0.0 6.0 1 2
r 0.7078 0 1 tcp 1040 ------- 1 0.0 6.0 2 3
h 0.7078 1 8 tcp 1040 ------- 1 0.0 6.0 2 3
+ 0.73948 1 8 tcp 1040 ------- 1 0.0 6.0 1 2
- 0.73948 1 8 tcp 1040 ------- 1 0.0 6.0 1 2
+ 0.7478 1 8 tcp 1040 ------- 1 0.0 6.0 2 3
- 0.7478 1 8 tcp 1040 ------- 1 0.0 6.0 2 3
r 0.7837 8 6 tcp 1040 ------- 1 0.0 6.0 1 2
h 0.7837 6 8 ack 40 ------- 1 6.0 0.0 1 4
r 0.79202 8 6 tcp 1040 ------- 1 0.0 6.0 2 3
h 0.79202 6 8 ack 40 ------- 1 6.0 0.0 2 5
+ 0.8237 6 8 ack 40 ------- 1 6.0 0.0 1 4
- 0.8237 6 8 ack 40 ------- 1 6.0 0.0 1 4
+ 0.83202 6 8 ack 40 ------- 1 6.0 0.0 2 5
- 0.83202 6 8 ack 40 ------- 1 6.0 0.0 2 5
r 0.86396 8 1 ack 40 ------- 1 6.0 0.0 1 4
+ 0.86396 1 0 ack 40 ------- 1 6.0 0.0 1 4
- 0.86396 1 0 ack 40 ------- 1 6.0 0.0 1 4
r 0.87228 8 1 ack 40 ------- 1 6.0 0.0 2 5
+ 0.87228 1 0 ack 40 ------- 1 6.0 0.0 2 5
- 0.87228 1 0 ack 40 ------- 1 6.0 0.0 2 5
r 0.87428 1 0 ack 40 ------- 1 6.0 0.0 1 4
+ 0.87428 0 1 tcp 1040 ------- 1 0.0 6.0 3 6
- 0.87428 0 1 tcp 1040 ------- 1 0.0 6.0 3 6
+ 0.87428 0 1 tcp 1040 ------- 1 0.0 6.0 4 7
r 0.8826 1 0 ack 40 ------- 1 6.0 0.0 2 5
+ 0.8826 0 1 tcp 1040 ------- 1 0.0 6.0 5 8
d 0.8826 0 1 tcp 1040 ------- 1 0.0 6.0 5 8
+ 0.8826 0 1 tcp 1040 ------- 1 0.0 6.0 6 9
d 0.8826 0 1 tcp 1040 ------- 1 0.0 6.0 6 9
- 0.8826 0 1 tcp 1040 ------- 1 0.0 6.0 4 7
r 0.8926 0 1 tcp 1040 ------- 1 0.0 6.0 3 6
h 0.8926 1 8 tcp 1040 ------- 1 0.0 6.0 3 6
r 0.90092 0 1 tcp 1040 ------- 1 0.0 6.0 4 7
h 0.90092 1 8 tcp 1040 ------- 1 0.0 6.0 4 7
+ 0.9326 1 8 tcp 1040 ------- 1 0.0 6.0 3 6
- 0.9326 1 8 tcp 1040 ------- 1 0.0 6.0 3 6
+ 0.94092 1 8 tcp 1040 ------- 1 0.0 6.0 4 7
- 0.94092 1 8 tcp 1040 ------- 1 0.0 6.0 4 7
r 0.97682 8 6 tcp 1040 ------- 1 0.0 6.0 3 6
h 0.97682 6 8 ack 40 ------- 1 6.0 0.0 3 10
r 0.98514 8 6 tcp 1040 ------- 1 0.0 6.0 4 7
h 0.98514 6 8 ack 40 ------- 1 6.0 0.0 4 11
+ 1 7 2 cbr 210 ------- 2 7.0 5.0 0 12
- 1 7 2 cbr 210 ------- 2 7.0 5.0 0 12
+ 1.005 7 2 cbr 210 ------- 2 7.0 5.0 1 13
- 1.005 7 2 cbr 210 ------- 2 7.0 5.0 1 13
+ 1.01 7 2 cbr 210 ------- 2 7.0 5.0 2 14
- 1.01 7 2 cbr 210 ------- 2 7.0 5.0 2 14
r 1.01168 7 2 cbr 210 ------- 2 7.0 5.0 0 12
h 1.01168 2 8 cbr 210 ------- 2 7.0 5.0 0 12
+ 1.015 7 2 cbr 210 ------- 2 7.0 5.0 3 15
- 1.015 7 2 cbr 210 ------- 2 7.0 5.0 3 15
r 1.01668 7 2 cbr 210 ------- 2 7.0 5.0 1 13
h 1.01668 2 8 cbr 210 ------- 2 7.0 5.0 1 13
+ 1.01682 6 8 ack 40 ------- 1 6.0 0.0 3 10
- 1.01682 6 8 ack 40 ------- 1 6.0 0.0 3 10
+ 1.02 7 2 cbr 210 ------- 2 7.0 5.0 4 16
- 1.02 7 2 cbr 210 ------- 2 7.0 5.0 4 16
r 1.02168 7 2 cbr 210 ------- 2 7.0 5.0 2 14
h 1.02168 2 8 cbr 210 ------- 2 7.0 5.0 2 14
+ 1.025 7 2 cbr 210 ------- 2 7.0 5.0 5 17
- 1.025 7 2 cbr 210 ------- 2 7.0 5.0 5 17
+ 1.02514 6 8 ack 40 ------- 1 6.0 0.0 4 11
- 1.02514 6 8 ack 40 ------- 1 6.0 0.0 4 11
r 1.02668 7 2 cbr 210 ------- 2 7.0 5.0 3 15
h 1.02668 2 8 cbr 210 ------- 2 7.0 5.0 3 15
+ 1.03 7 2 cbr 210 ------- 2 7.0 5.0 6 18
- 1.03 7 2 cbr 210 ------- 2 7.0 5.0 6 18
r 1.03168 7 2 cbr 210 ------- 2 7.0 5.0 4 16
h 1.03168 2 8 cbr 210 ------- 2 7.0 5.0 4 16
+ 1.035 7 2 cbr 210 ------- 2 7.0 5.0 7 19
- 1.035 7 2 cbr 210 ------- 2 7.0 5.0 7 19
r 1.03668 7 2 cbr 210 ------- 2 7.0 5.0 5 17
h 1.03668 2 8 cbr 210 ------- 2 7.0 5.0 5 17
+ 1.04 7 2 cbr 210 ------- 2 7.0 5.0 8 20
- 1.04 7 2 cbr 210 ------- 2 7.0 5.0 8 20
r 1.04168 7 2 cbr 210 ------- 2 7.0 5.0 6 18
h 1.04168 2 8 cbr 210 ------- 2 7.0 5.0 6 18
+ 1.045 7 2 cbr 210 ------- 2 7.0 5.0 9 21
- 1.045 7 2 cbr 210 ------- 2 7.0 5.0 9 21
r 1.04668 7 2 cbr 210 ------- 2 7.0 5.0 7 19
h 1.04668 2 8 cbr 210 ------- 2 7.0 5.0 7 19
+ 1.05 7 2 cbr 210 ------- 2 7.0 5.0 10 22
- 1.05 7 2 cbr 210 ------- 2 7.0 5.0 10 22
r 1.05168 7 2 cbr 210 ------- 2 7.0 5.0 8 20
h 1.05168 2 8 cbr 210 ------- 2 7.0 5.0 8 20
+ 1.05168 2 8 cbr 210 ------- 2 7.0 5.0 0 12
- 1.05168 2 8 cbr 210 ------- 2 7.0 5.0 0 12
+ 1.055 7 2 cbr 210 ------- 2 7.0 5.0 11 23
- 1.055 7 2 cbr 210 ------- 2 7.0 5.0 11 23
r 1.05668 7 2 cbr 210 ------- 2 7.0 5.0 9 21
h 1.05668 2 8 cbr 210 ------- 2 7.0 5.0 9 21
+ 1.05668 2 8 cbr 210 ------- 2 7.0 5.0 1 13
- 1.05668 2 8 cbr 210 ------- 2 7.0 5.0 1 13
r 1.05708 8 1 ack 40 ------- 1 6.0 0.0 3 10
+ 1.05708 1 0 ack 40 ------- 1 6.0 0.0 3 10
- 1.05708 1 0 ack 40 ------- 1 6.0 0.0 3 10
+ 1.06 7 2 cbr 210 ------- 2 7.0 5.0 12 24
- 1.06 7 2 cbr 210 ------- 2 7.0 5.0 12 24
r 1.06168 7 2 cbr 210 ------- 2 7.0 5.0 10 22
h 1.06168 2 8 cbr 210 ------- 2 7.0 5.0 10 22
+ 1.06168 2 8 cbr 210 ------- 2 7.0 5.0 2 14
- 1.06168 2 8 cbr 210 ------- 2 7.0 5.0 2 14
+ 1.065 7 2 cbr 210 ------- 2 7.0 5.0 13 25
- 1.065 7 2 cbr 210 ------- 2 7.0 5.0 13 25
r 1.0654 8 1 ack 40 ------- 1 6.0 0.0 4 11
+ 1.0654 1 0 ack 40 ------- 1 6.0 0.0 4 11
- 1.0654 1 0 ack 40 ------- 1 6.0 0.0 4 11
r 1.06668 7 2 cbr 210 ------- 2 7.0 5.0 11 23
h 1.06668 2 8 cbr 210 ------- 2 7.0 5.0 11 23
+ 1.06668 2 8 cbr 210 ------- 2 7.0 5.0 3 15
- 1.06668 2 8 cbr 210 ------- 2 7.0 5.0 3 15
r 1.0674 1 0 ack 40 ------- 1 6.0 0.0 3 10
+ 1.0674 0 1 tcp 1040 ------- 1 0.0 6.0 7 26
- 1.0674 0 1 tcp 1040 ------- 1 0.0 6.0 7 26
+ 1.0674 0 1 tcp 1040 ------- 1 0.0 6.0 8 27
+ 1.07 7 2 cbr 210 ------- 2 7.0 5.0 14 28
- 1.07 7 2 cbr 210 ------- 2 7.0 5.0 14 28
r 1.07168 7 2 cbr 210 ------- 2 7.0 5.0 12 24
h 1.07168 2 8 cbr 210 ------- 2 7.0 5.0 12 24
+ 1.07168 2 8 cbr 210 ------- 2 7.0 5.0 4 16
- 1.07168 2 8 cbr 210 ------- 2 7.0 5.0 4 16
+ 1.075 7 2 cbr 210 ------- 2 7.0 5.0 15 29
- 1.075 7 2 cbr 210 ------- 2 7.0 5.0 15 29
r 1.07572 1 0 ack 40 ------- 1 6.0 0.0 4 11
+ 1.07572 0 1 tcp 1040 ------- 1 0.0 6.0 9 30
d 1.07572 0 1 tcp 1040 ------- 1 0.0 6.0 9 30
+ 1.07572 0 1 tcp 1040 ------- 1 0.0 6.0 10 31
d 1.07572 0 1 tcp 1040 ------- 1 0.0 6.0 10 31
- 1.07572 0 1 tcp 1040 ------- 1 0.0 6.0 8 27
r 1.07668 7 2 cbr 210 ------- 2 7.0 5.0 13 25
h 1.07668 2 8 cbr 210 ------- 2 7.0 5.0 13 25
+ 1.07668 2 8 cbr 210 ------- 2 7.0 5.0 5 17
- 1.07668 2 8 cbr 210 ------- 2 7.0 5.0 5 17
+ 1.08 7 2 cbr 210 ------- 2 7.0 5.0 16 32
- 1.08 7 2 cbr 210 ------- 2 7.0 5.0 16 32
r 1.08168 7 2 cbr 210 ------- 2 7.0 5.0 14 28
h 1.08168 2 8 cbr 210 ------- 2 7.0 5.0 14 28
+ 1.08168 2 8 cbr 210 ------- 2 7.0 5.0 6 18
- 1.08168 2 8 cbr 210 ------- 2 7.0 5.0 6 18
+ 1.085 7 2 cbr 210 ------- 2 7.0 5.0 17 33
- 1.085 7 2 cbr 210 ------- 2 7.0 5.0 17 33
r 1.08572 0 1 tcp 1040 ------- 1 0.0 6.0 7 26
h 1.08572 1 8 tcp 1040 ------- 1 0.0 6.0 7 26
r 1.08668 7 2 cbr 210 ------- 2 7.0 5.0 15 29
h 1.08668 2 8 cbr 210 ------- 2 7.0 5.0 15 29
+ 1.08668 2 8 cbr 210 ------- 2 7.0 5.0 7 19
- 1.08668 2 8 cbr 210 ------- 2 7.0 5.0 7 19
+ 1.09 7 2 cbr 210 ------- 2 7.0 5.0 18 34
- 1.09 7 2 cbr 210 ------- 2 7.0 5.0 18 34
r 1.09168 7 2 cbr 210 ------- 2 7.0 5.0 16 32
h 1.09168 2 8 cbr 210 ------- 2 7.0 5.0 16 32
+ 1.09168 2 8 cbr 210 ------- 2 7.0 5.0 8 20
- 1.09168 2 8 cbr 210 ------- 2 7.0 5.0 8 20
r 1.09258 8 5 cbr 210 ------- 2 7.0 5.0 0 12
r 1.09404 0 1 tcp 1040 ------- 1 0.0 6.0 8 27
h 1.09404 1 8 tcp 1040 ------- 1 0.0 6.0 8 27
+ 1.095 7 2 cbr 210 ------- 2 7.0 5.0 19 35
- 1.095 7 2 cbr 210 ------- 2 7.0 5.0 19 35
r 1.09668 7 2 cbr 210 ------- 2 7.0 5.0 17 33
h 1.09668 2 8 cbr 210 ------- 2 7.0 5.0 17 33
+ 1.09668 2 8 cbr 210 ------- 2 7.0 5.0 9 21
- 1.09668 2 8 cbr 210 ------- 2 7.0 5.0 9 21
r 1.09758 8 5 cbr 210 ------- 2 7.0 5.0 1 13
+ 1.1 7 2 cbr 210 ------- 2 7.0 5.0 20 36
- 1.1 7 2 cbr 210 ------- 2 7.0 5.0 20 36
r 1.10168 7 2 cbr 210 ------- 2 7.0 5.0 18 34
h 1.10168 2 8 cbr 210 ------- 2 7.0 5.0 18 34
+ 1.10168 2 8 cbr 210 ------- 2 7.0 5.0 10 22
- 1.10168 2 8 cbr 210 ------- 2 7.0 5.0 10 22
r 1.10258 8 5 cbr 210 ------- 2 7.0 5.0 2 14
+ 1.105 7 2 cbr 210 ------- 2 7.0 5.0 21 37
- 1.105 7 2 cbr 210 ------- 2 7.0 5.0 21 37
r 1.10668 7 2 cbr 210 ------- 2 7.0 5.0 19 35
h 1.10668 2 8 cbr 210 ------- 2 7.0 5.0 19 35
+ 1.10668 2 8 cbr 210 ------- 2 7.0 5.0 11 23
- 1.10668 2 8 cbr 210 ------- 2 7.0 5.0 11 23
r 1.10758 8 5 cbr 210 ------- 2 7.0 5.0 3 15
+ 1.11 7 2 cbr 210 ------- 2 7.0 5.0 22 38
- 1.11 7 2 cbr 210 ------- 2 7.0 5.0 22 38
r 1.11168 7 2 cbr 210 ------- 2 7.0 5.0 20 36
h 1.11168 2 8 cbr 210 ------- 2 7.0 5.0 20 36
+ 1.11168 2 8 cbr 210 ------- 2 7.0 5.0 12 24
- 1.11168 2 8 cbr 210 ------- 2 7.0 5.0 12 24
r 1.11258 8 5 cbr 210 ------- 2 7.0 5.0 4 16
+ 1.115 7 2 cbr 210 ------- 2 7.0 5.0 23 39
- 1.115 7 2 cbr 210 ------- 2 7.0 5.0 23 39
r 1.11668 7 2 cbr 210 ------- 2 7.0 5.0 21 37
h 1.11668 2 8 cbr 210 ------- 2 7.0 5.0 21 37
+ 1.11668 2 8 cbr 210 ------- 2 7.0 5.0 13 25
- 1.11668 2 8 cbr 210 ------- 2 7.0 5.0 13 25
r 1.11758 8 5 cbr 210 ------- 2 7.0 5.0 5 17
+ 1.12 7 2 cbr 210 ------- 2 7.0 5.0 24 40
- 1.12 7 2 cbr 210 ------- 2 7.0 5.0 24 40
r 1.12168 7 2 cbr 210 ------- 2 7.0 5.0 22 38
h 1.12168 2 8 cbr 210 ------- 2 7.0 5.0 22 38
+ 1.12168 2 8 cbr 210 ------- 2 7.0 5.0 14 28
- 1.12168 2 8 cbr 210 ------- 2 7.0 5.0 14 28
r 1.12258 8 5 cbr 210 ------- 2 7.0 5.0 6 18
+ 1.125 7 2 cbr 210 ------- 2 7.0 5.0 25 41
- 1.125 7 2 cbr 210 ------- 2 7.0 5.0 25 41
+ 1.12572 1 8 tcp 1040 ------- 1 0.0 6.0 7 26
- 1.12572 1 8 tcp 1040 ------- 1 0.0 6.0 7 26
r 1.12668 7 2 cbr 210 ------- 2 7.0 5.0 23 39
h 1.12668 2 8 cbr 210 ------- 2 7.0 5.0 23 39
+ 1.12668 2 8 cbr 210 ------- 2 7.0 5.0 15 29
- 1.12668 2 8 cbr 210 ------- 2 7.0 5.0 15 29
r 1.12758 8 5 cbr 210 ------- 2 7.0 5.0 7 19
+ 1.13 7 2 cbr 210 ------- 2 7.0 5.0 26 42
- 1.13 7 2 cbr 210 ------- 2 7.0 5.0 26 42
r 1.13168 7 2 cbr 210 ------- 2 7.0 5.0 24 40
h 1.13168 2 8 cbr 210 ------- 2 7.0 5.0 24 40
+ 1.13168 2 8 cbr 210 ------- 2 7.0 5.0 16 32
- 1.13168 2 8 cbr 210 ------- 2 7.0 5.0 16 32
r 1.13258 8 5 cbr 210 ------- 2 7.0 5.0 8 20
+ 1.13404 1 8 tcp 1040 ------- 1 0.0 6.0 8 27
- 1.13404 1 8 tcp 1040 ------- 1 0.0 6.0 8 27
+ 1.135 7 2 cbr 210 ------- 2 7.0 5.0 27 43
- 1.135 7 2 cbr 210 ------- 2 7.0 5.0 27 43
r 1.13668 7 2 cbr 210 ------- 2 7.0 5.0 25 41
h 1.13668 2 8 cbr 210 ------- 2 7.0 5.0 25 41
+ 1.13668 2 8 cbr 210 ------- 2 7.0 5.0 17 33
- 1.13668 2 8 cbr 210 ------- 2 7.0 5.0 17 33
r 1.13758 8 5 cbr 210 ------- 2 7.0 5.0 9 21
+ 1.14 7 2 cbr 210 ------- 2 7.0 5.0 28 44
- 1.14 7 2 cbr 210 ------- 2 7.0 5.0 28 44
r 1.14168 7 2 cbr 210 ------- 2 7.0 5.0 26 42
h 1.14168 2 8 cbr 210 ------- 2 7.0 5.0 26 42
+ 1.14168 2 8 cbr 210 ------- 2 7.0 5.0 18 34
- 1.14168 2 8 cbr 210 ------- 2 7.0 5.0 18 34
r 1.14258 8 5 cbr 210 ------- 2 7.0 5.0 10 22
+ 1.145 7 2 cbr 210 ------- 2 7.0 5.0 29 45
- 1.145 7 2 cbr 210 ------- 2 7.0 5.0 29 45
r 1.14668 7 2 cbr 210 ------- 2 7.0 5.0 27 43
h 1.14668 2 8 cbr 210 ------- 2 7.0 5.0 27 43
+ 1.14668 2 8 cbr 210 ------- 2 7.0 5.0 19 35
- 1.14668 2 8 cbr 210 ------- 2 7.0 5.0 19 35
r 1.14758 8 5 cbr 210 ------- 2 7.0 5.0 11 23
+ 1.15 7 2 cbr 210 ------- 2 7.0 5.0 30 46
- 1.15 7 2 cbr 210 ------- 2 7.0 5.0 30 46
r 1.15168 7 2 cbr 210 ------- 2 7.0 5.0 28 44
h 1.15168 2 8 cbr 210 ------- 2 7.0 5.0 28 44
+ 1.15168 2 8 cbr 210 ------- 2 7.0 5.0 20 36
- 1.15168 2 8 cbr 210 ------- 2 7.0 5.0 20 36
r 1.15258 8 5 cbr 210 ------- 2 7.0 5.0 12 24
+ 1.155 7 2 cbr 210 ------- 2 7.0 5.0 31 47
- 1.155 7 2 cbr 210 ------- 2 7.0 5.0 31 47
r 1.15668 7 2 cbr 210 ------- 2 7.0 5.0 29 45
h 1.15668 2 8 cbr 210 ------- 2 7.0 5.0 29 45
+ 1.15668 2 8 cbr 210 ------- 2 7.0 5.0 21 37
- 1.15668 2 8 cbr 210 ------- 2 7.0 5.0 21 37
r 1.15758 8 5 cbr 210 ------- 2 7.0 5.0 13 25
+ 1.16 7 2 cbr 210 ------- 2 7.0 5.0 32 48
- 1.16 7 2 cbr 210 ------- 2 7.0 5.0 32 48
r 1.16168 7 2 cbr 210 ------- 2 7.0 5.0 30 46
h 1.16168 2 8 cbr 210 ------- 2 7.0 5.0 30 46
+ 1.16168 2 8 cbr 210 ------- 2 7.0 5.0 22 38
- 1.16168 2 8 cbr 210 ------- 2 7.0 5.0 22 38
r 1.16258 8 5 cbr 210 ------- 2 7.0 5.0 14 28
+ 1.165 7 2 cbr 210 ------- 2 7.0 5.0 33 49
- 1.165 7 2 cbr 210 ------- 2 7.0 5.0 33 49
r 1.16668 7 2 cbr 210 ------- 2 7.0 5.0 31 47
h 1.16668 2 8 cbr 210 ------- 2 7.0 5.0 31 47
+ 1.16668 2 8 cbr 210 ------- 2 7.0 5.0 23 39
- 1.16668 2 8 cbr 210 ------- 2 7.0 5.0 23 39
r 1.16994 8 6 tcp 1040 ------- 1 0.0 6.0 7 26
h 1.16994 6 8 ack 40 ------- 1 6.0 0.0 4 50
+ 1.17 7 2 cbr 210 ------- 2 7.0 5.0 34 51
- 1.17 7 2 cbr 210 ------- 2 7.0 5.0 34 51
r 1.170888 8 5 cbr 210 ------- 2 7.0 5.0 15 29
r 1.17168 7 2 cbr 210 ------- 2 7.0 5.0 32 48
h 1.17168 2 8 cbr 210 ------- 2 7.0 5.0 32 48
+ 1.17168 2 8 cbr 210 ------- 2 7.0 5.0 24 40
- 1.17168 2 8 cbr 210 ------- 2 7.0 5.0 24 40
r 1.17258 8 5 cbr 210 ------- 2 7.0 5.0 16 32
+ 1.175 7 2 cbr 210 ------- 2 7.0 5.0 35 52
- 1.175 7 2 cbr 210 ------- 2 7.0 5.0 35 52
r 1.17668 7 2 cbr 210 ------- 2 7.0 5.0 33 49
h 1.17668 2 8 cbr 210 ------- 2 7.0 5.0 33 49
+ 1.17668 2 8 cbr 210 ------- 2 7.0 5.0 25 41
- 1.17668 2 8 cbr 210 ------- 2 7.0 5.0 25 41
r 1.17826 8 6 tcp 1040 ------- 1 0.0 6.0 8 27
h 1.17826 6 8 ack 40 ------- 1 6.0 0.0 4 53
r 1.179208 8 5 cbr 210 ------- 2 7.0 5.0 17 33
+ 1.18 7 2 cbr 210 ------- 2 7.0 5.0 36 54
- 1.18 7 2 cbr 210 ------- 2 7.0 5.0 36 54
r 1.18168 7 2 cbr 210 ------- 2 7.0 5.0 34 51
h 1.18168 2 8 cbr 210 ------- 2 7.0 5.0 34 51
+ 1.18168 2 8 cbr 210 ------- 2 7.0 5.0 26 42
- 1.18168 2 8 cbr 210 ------- 2 7.0 5.0 26 42
r 1.18258 8 5 cbr 210 ------- 2 7.0 5.0 18 34
+ 1.185 7 2 cbr 210 ------- 2 7.0 5.0 37 55
- 1.185 7 2 cbr 210 ------- 2 7.0 5.0 37 55
r 1.18668 7 2 cbr 210 ------- 2 7.0 5.0 35 52
h 1.18668 2 8 cbr 210 ------- 2 7.0 5.0 35 52
+ 1.18668 2 8 cbr 210 ------- 2 7.0 5.0 27 43
- 1.18668 2 8 cbr 210 ------- 2 7.0 5.0 27 43
r 1.18758 8 5 cbr 210 ------- 2 7.0 5.0 19 35
+ 1.19 7 2 cbr 210 ------- 2 7.0 5.0 38 56
- 1.19 7 2 cbr 210 ------- 2 7.0 5.0 38 56
r 1.19168 7 2 cbr 210 ------- 2 7.0 5.0 36 54
h 1.19168 2 8 cbr 210 ------- 2 7.0 5.0 36 54
+ 1.19168 2 8 cbr 210 ------- 2 7.0 5.0 28 44
- 1.19168 2 8 cbr 210 ------- 2 7.0 5.0 28 44
r 1.19258 8 5 cbr 210 ------- 2 7.0 5.0 20 36
+ 1.195 7 2 cbr 210 ------- 2 7.0 5.0 39 57
- 1.195 7 2 cbr 210 ------- 2 7.0 5.0 39 57
r 1.19668 7 2 cbr 210 ------- 2 7.0 5.0 37 55
h 1.19668 2 8 cbr 210 ------- 2 7.0 5.0 37 55
+ 1.19668 2 8 cbr 210 ------- 2 7.0 5.0 29 45
- 1.19668 2 8 cbr 210 ------- 2 7.0 5.0 29 45
r 1.19758 8 5 cbr 210 ------- 2 7.0 5.0 21 37
+ 1.2 7 2 cbr 210 ------- 2 7.0 5.0 40 58
- 1.2 7 2 cbr 210 ------- 2 7.0 5.0 40 58
r 1.20168 7 2 cbr 210 ------- 2 7.0 5.0 38 56
h 1.20168 2 8 cbr 210 ------- 2 7.0 5.0 38 56
+ 1.20168 2 8 cbr 210 ------- 2 7.0 5.0 30 46
- 1.20168 2 8 cbr 210 ------- 2 7.0 5.0 30 46
r 1.20258 8 5 cbr 210 ------- 2 7.0 5.0 22 38
+ 1.205 7 2 cbr 210 ------- 2 7.0 5.0 41 59
- 1.205 7 2 cbr 210 ------- 2 7.0 5.0 41 59
r 1.20668 7 2 cbr 210 ------- 2 7.0 5.0 39 57
h 1.20668 2 8 cbr 210 ------- 2 7.0 5.0 39 57
+ 1.20668 2 8 cbr 210 ------- 2 7.0 5.0 31 47
- 1.20668 2 8 cbr 210 ------- 2 7.0 5.0 31 47
r 1.20758 8 5 cbr 210 ------- 2 7.0 5.0 23 39
+ 1.20994 6 8 ack 40 ------- 1 6.0 0.0 4 50
- 1.20994 6 8 ack 40 ------- 1 6.0 0.0 4 50
+ 1.21 7 2 cbr 210 ------- 2 7.0 5.0 42 60
- 1.21 7 2 cbr 210 ------- 2 7.0 5.0 42 60
r 1.21168 7 2 cbr 210 ------- 2 7.0 5.0 40 58
h 1.21168 2 8 cbr 210 ------- 2 7.0 5.0 40 58
+ 1.21168 2 8 cbr 210 ------- 2 7.0 5.0 32 48
- 1.21168 2 8 cbr 210 ------- 2 7.0 5.0 32 48
r 1.21258 8 5 cbr 210 ------- 2 7.0 5.0 24 40
+ 1.215 7 2 cbr 210 ------- 2 7.0 5.0 43 61
- 1.215 7 2 cbr 210 ------- 2 7.0 5.0 43 61
r 1.21668 7 2 cbr 210 ------- 2 7.0 5.0 41 59
h 1.21668 2 8 cbr 210 ------- 2 7.0 5.0 41 59
+ 1.21668 2 8 cbr 210 ------- 2 7.0 5.0 33 49
- 1.21668 2 8 cbr 210 ------- 2 7.0 5.0 33 49
r 1.21758 8 5 cbr 210 ------- 2 7.0 5.0 25 41
+ 1.21826 6 8 ack 40 ------- 1 6.0 0.0 4 53
- 1.21826 6 8 ack 40 ------- 1 6.0 0.0 4 53
+ 1.22 7 2 cbr 210 ------- 2 7.0 5.0 44 62
- 1.22 7 2 cbr 210 ------- 2 7.0 5.0 44 62
r 1.22168 7 2 cbr 210 ------- 2 7.0 5.0 42 60
h 1.22168 2 8 cbr 210 ------- 2 7.0 5.0 42 60
+ 1.22168 2 8 cbr 210 ------- 2 7.0 5.0 34 51
- 1.22168 2 8 cbr 210 ------- 2 7.0 5.0 34 51
r 1.22258 8 5 cbr 210 ------- 2 7.0 5.0 26 42
+ 1.225 7 2 cbr 210 ------- 2 7.0 5.0 45 63
- 1.225 7 2 cbr 210 ------- 2 7.0 5.0 45 63
r 1.22668 7 2 cbr 210 ------- 2 7.0 5.0 43 61
h 1.22668 2 8 cbr 210 ------- 2 7.0 5.0 43 61
+ 1.22668 2 8 cbr 210 ------- 2 7.0 5.0 35 52
- 1.22668 2 8 cbr 210 ------- 2 7.0 5.0 35 52
r 1.22758 8 5 cbr 210 ------- 2 7.0 5.0 27 43
+ 1.23 7 2 cbr 210 ------- 2 7.0 5.0 46 64
- 1.23 7 2 cbr 210 ------- 2 7.0 5.0 46 64
r 1.23168 7 2 cbr 210 ------- 2 7.0 5.0 44 62
h 1.23168 2 8 cbr 210 ------- 2 7.0 5.0 44 62
+ 1.23168 2 8 cbr 210 ------- 2 7.0 5.0 36 54
- 1.23168 2 8 cbr 210 ------- 2 7.0 5.0 36 54
r 1.23258 8 5 cbr 210 ------- 2 7.0 5.0 28 44
+ 1.235 7 2 cbr 210 ------- 2 7.0 5.0 47 65
- 1.235 7 2 cbr 210 ------- 2 7.0 5.0 47 65
r 1.23668 7 2 cbr 210 ------- 2 7.0 5.0 45 63
h 1.23668 2 8 cbr 210 ------- 2 7.0 5.0 45 63
+ 1.23668 2 8 cbr 210 ------- 2 7.0 5.0 37 55
- 1.23668 2 8 cbr 210 ------- 2 7.0 5.0 37 55
r 1.23758 8 5 cbr 210 ------- 2 7.0 5.0 29 45
+ 1.24 7 2 cbr 210 ------- 2 7.0 5.0 48 66
- 1.24 7 2 cbr 210 ------- 2 7.0 5.0 48 66
r 1.24168 7 2 cbr 210 ------- 2 7.0 5.0 46 64
h 1.24168 2 8 cbr 210 ------- 2 7.0 5.0 46 64
+ 1.24168 2 8 cbr 210 ------- 2 7.0 5.0 38 56
- 1.24168 2 8 cbr 210 ------- 2 7.0 5.0 38 56
r 1.24258 8 5 cbr 210 ------- 2 7.0 5.0 30 46
+ 1.245 7 2 cbr 210 ------- 2 7.0 5.0 49 67
- 1.245 7 2 cbr 210 ------- 2 7.0 5.0 49 67
r 1.24668 7 2 cbr 210 ------- 2 7.0 5.0 47 65
h 1.24668 2 8 cbr 210 ------- 2 7.0 5.0 47 65
+ 1.24668 2 8 cbr 210 ------- 2 7.0 5.0 39 57
- 1.24668 2 8 cbr 210 ------- 2 7.0 5.0 39 57
r 1.24758 8 5 cbr 210 ------- 2 7.0 5.0 31 47
+ 1.25 7 2 cbr 210 ------- 2 7.0 5.0 50 68
- 1.25 7 2 cbr 210 ------- 2 7.0 5.0 50 68
r 1.2502 8 1 ack 40 ------- 1 6.0 0.0 4 50
+ 1.2502 1 0 ack 40 ------- 1 6.0 0.0 4 50
- 1.2502 1 0 ack 40 ------- 1 6.0 0.0 4 50
r 1.25168 7 2 cbr 210 ------- 2 7.0 5.0 48 66
h 1.25168 2 8 cbr 210 ------- 2 7.0 5.0 48 66
+ 1.25168 2 8 cbr 210 ------- 2 7.0 5.0 40 58
- 1.25168 2 8 cbr 210 ------- 2 7.0 5.0 40 58
r 1.25258 8 5 cbr 210 ------- 2 7.0 5.0 32 48
+ 1.255 7 2 cbr 210 ------- 2 7.0 5.0 51 69
- 1.255 7 2 cbr 210 ------- 2 7.0 5.0 51 69
r 1.25668 7 2 cbr 210 ------- 2 7.0 5.0 49 67
h 1.25668 2 8 cbr 210 ------- 2 7.0 5.0 49 67
+ 1.25668 2 8 cbr 210 ------- 2 7.0 5.0 41 59
- 1.25668 2 8 cbr 210 ------- 2 7.0 5.0 41 59
r 1.25758 8 5 cbr 210 ------- 2 7.0 5.0 33 49
r 1.25852 8 1 ack 40 ------- 1 6.0 0.0 4 53
+ 1.25852 1 0 ack 40 ------- 1 6.0 0.0 4 53
- 1.25852 1 0 ack 40 ------- 1 6.0 0.0 4 53
+ 1.26 7 2 cbr 210 ------- 2 7.0 5.0 52 70
- 1.26 7 2 cbr 210 ------- 2 7.0 5.0 52 70
r 1.26052 1 0 ack 40 ------- 1 6.0 0.0 4 50
+ 1.26052 0 1 tcp 1040 ------- 1 0.0 6.0 11 71
- 1.26052 0 1 tcp 1040 ------- 1 0.0 6.0 11 71
r 1.26168 7 2 cbr 210 ------- 2 7.0 5.0 50 68
h 1.26168 2 8 cbr 210 ------- 2 7.0 5.0 50 68
+ 1.26168 2 8 cbr 210 ------- 2 7.0 5.0 42 60
- 1.26168 2 8 cbr 210 ------- 2 7.0 5.0 42 60
r 1.26258 8 5 cbr 210 ------- 2 7.0 5.0 34 51
+ 1.265 7 2 cbr 210 ------- 2 7.0 5.0 53 72
- 1.265 7 2 cbr 210 ------- 2 7.0 5.0 53 72
r 1.26668 7 2 cbr 210 ------- 2 7.0 5.0 51 69
h 1.26668 2 8 cbr 210 ------- 2 7.0 5.0 51 69
+ 1.26668 2 8 cbr 210 ------- 2 7.0 5.0 43 61
- 1.26668 2 8 cbr 210 ------- 2 7.0 5.0 43 61
r 1.26758 8 5 cbr 210 ------- 2 7.0 5.0 35 52
r 1.26884 1 0 ack 40 ------- 1 6.0 0.0 4 53
+ 1.26884 0 1 tcp 1040 ------- 1 0.0 6.0 12 73
- 1.26884 0 1 tcp 1040 ------- 1 0.0 6.0 12 73
+ 1.27 7 2 cbr 210 ------- 2 7.0 5.0 54 74
- 1.27 7 2 cbr 210 ------- 2 7.0 5.0 54 74
r 1.27168 7 2 cbr 210 ------- 2 7.0 5.0 52 70
h 1.27168 2 8 cbr 210 ------- 2 7.0 5.0 52 70
+ 1.27168 2 8 cbr 210 ------- 2 7.0 5.0 44 62
- 1.27168 2 8 cbr 210 ------- 2 7.0 5.0 44 62
r 1.27258 8 5 cbr 210 ------- 2 7.0 5.0 36 54
+ 1.275 7 2 cbr 210 ------- 2 7.0 5.0 55 75
- 1.275 7 2 cbr 210 ------- 2 7.0 5.0 55 75
r 1.27668 7 2 cbr 210 ------- 2 7.0 5.0 53 72
h 1.27668 2 8 cbr 210 ------- 2 7.0 5.0 53 72
+ 1.27668 2 8 cbr 210 ------- 2 7.0 5.0 45 63
- 1.27668 2 8 cbr 210 ------- 2 7.0 5.0 45 63
r 1.27758 8 5 cbr 210 ------- 2 7.0 5.0 37 55
r 1.27884 0 1 tcp 1040 ------- 1 0.0 6.0 11 71
h 1.27884 1 8 tcp 1040 ------- 1 0.0 6.0 11 71
+ 1.28 7 2 cbr 210 ------- 2 7.0 5.0 56 76
- 1.28 7 2 cbr 210 ------- 2 7.0 5.0 56 76
r 1.28168 7 2 cbr 210 ------- 2 7.0 5.0 54 74
h 1.28168 2 8 cbr 210 ------- 2 7.0 5.0 54 74
+ 1.28168 2 8 cbr 210 ------- 2 7.0 5.0 46 64
- 1.28168 2 8 cbr 210 ------- 2 7.0 5.0 46 64
r 1.28258 8 5 cbr 210 ------- 2 7.0 5.0 38 56
+ 1.285 7 2 cbr 210 ------- 2 7.0 5.0 57 77
- 1.285 7 2 cbr 210 ------- 2 7.0 5.0 57 77
r 1.28668 7 2 cbr 210 ------- 2 7.0 5.0 55 75
h 1.28668 2 8 cbr 210 ------- 2 7.0 5.0 55 75
+ 1.28668 2 8 cbr 210 ------- 2 7.0 5.0 47 65
- 1.28668 2 8 cbr 210 ------- 2 7.0 5.0 47 65
r 1.28716 0 1 tcp 1040 ------- 1 0.0 6.0 12 73
h 1.28716 1 8 tcp 1040 ------- 1 0.0 6.0 12 73
r 1.28758 8 5 cbr 210 ------- 2 7.0 5.0 39 57
+ 1.29 7 2 cbr 210 ------- 2 7.0 5.0 58 78
- 1.29 7 2 cbr 210 ------- 2 7.0 5.0 58 78
r 1.29168 7 2 cbr 210 ------- 2 7.0 5.0 56 76
h 1.29168 2 8 cbr 210 ------- 2 7.0 5.0 56 76
+ 1.29168 2 8 cbr 210 ------- 2 7.0 5.0 48 66
- 1.29168 2 8 cbr 210 ------- 2 7.0 5.0 48 66
r 1.29258 8 5 cbr 210 ------- 2 7.0 5.0 40 58
+ 1.295 7 2 cbr 210 ------- 2 7.0 5.0 59 79
- 1.295 7 2 cbr 210 ------- 2 7.0 5.0 59 79
r 1.29668 7 2 cbr 210 ------- 2 7.0 5.0 57 77
h 1.29668 2 8 cbr 210 ------- 2 7.0 5.0 57 77
+ 1.29668 2 8 cbr 210 ------- 2 7.0 5.0 49 67
- 1.29668 2 8 cbr 210 ------- 2 7.0 5.0 49 67
r 1.29758 8 5 cbr 210 ------- 2 7.0 5.0 41 59
+ 1.3 7 2 cbr 210 ------- 2 7.0 5.0 60 80
- 1.3 7 2 cbr 210 ------- 2 7.0 5.0 60 80
r 1.30168 7 2 cbr 210 ------- 2 7.0 5.0 58 78
h 1.30168 2 8 cbr 210 ------- 2 7.0 5.0 58 78
+ 1.30168 2 8 cbr 210 ------- 2 7.0 5.0 50 68
- 1.30168 2 8 cbr 210 ------- 2 7.0 5.0 50 68
r 1.30258 8 5 cbr 210 ------- 2 7.0 5.0 42 60
+ 1.305 7 2 cbr 210 ------- 2 7.0 5.0 61 81
- 1.305 7 2 cbr 210 ------- 2 7.0 5.0 61 81
r 1.30668 7 2 cbr 210 ------- 2 7.0 5.0 59 79
h 1.30668 2 8 cbr 210 ------- 2 7.0 5.0 59 79
+ 1.30668 2 8 cbr 210 ------- 2 7.0 5.0 51 69
- 1.30668 2 8 cbr 210 ------- 2 7.0 5.0 51 69
r 1.30758 8 5 cbr 210 ------- 2 7.0 5.0 43 61
+ 1.31 7 2 cbr 210 ------- 2 7.0 5.0 62 82
- 1.31 7 2 cbr 210 ------- 2 7.0 5.0 62 82
r 1.31168 7 2 cbr 210 ------- 2 7.0 5.0 60 80
h 1.31168 2 8 cbr 210 ------- 2 7.0 5.0 60 80
+ 1.31168 2 8 cbr 210 ------- 2 7.0 5.0 52 70
- 1.31168 2 8 cbr 210 ------- 2 7.0 5.0 52 70
r 1.31258 8 5 cbr 210 ------- 2 7.0 5.0 44 62
+ 1.315 7 2 cbr 210 ------- 2 7.0 5.0 63 83
- 1.315 7 2 cbr 210 ------- 2 7.0 5.0 63 83
r 1.31668 7 2 cbr 210 ------- 2 7.0 5.0 61 81
h 1.31668 2 8 cbr 210 ------- 2 7.0 5.0 61 81
+ 1.31668 2 8 cbr 210 ------- 2 7.0 5.0 53 72
- 1.31668 2 8 cbr 210 ------- 2 7.0 5.0 53 72
r 1.31758 8 5 cbr 210 ------- 2 7.0 5.0 45 63
+ 1.31884 1 8 tcp 1040 ------- 1 0.0 6.0 11 71
- 1.31884 1 8 tcp 1040 ------- 1 0.0 6.0 11 71
+ 1.32 7 2 cbr 210 ------- 2 7.0 5.0 64 84
- 1.32 7 2 cbr 210 ------- 2 7.0 5.0 64 84
r 1.32168 7 2 cbr 210 ------- 2 7.0 5.0 62 82
h 1.32168 2 8 cbr 210 ------- 2 7.0 5.0 62 82
+ 1.32168 2 8 cbr 210 ------- 2 7.0 5.0 54 74
- 1.32168 2 8 cbr 210 ------- 2 7.0 5.0 54 74
r 1.32258 8 5 cbr 210 ------- 2 7.0 5.0 46 64
+ 1.325 7 2 cbr 210 ------- 2 7.0 5.0 65 85
- 1.325 7 2 cbr 210 ------- 2 7.0 5.0 65 85
r 1.32668 7 2 cbr 210 ------- 2 7.0 5.0 63 83
h 1.32668 2 8 cbr 210 ------- 2 7.0 5.0 63 83
+ 1.32668 2 8 cbr 210 ------- 2 7.0 5.0 55 75
- 1.32668 2 8 cbr 210 ------- 2 7.0 5.0 55 75
+ 1.32716 1 8 tcp 1040 ------- 1 0.0 6.0 12 73
- 1.32716 1 8 tcp 1040 ------- 1 0.0 6.0 12 73
r 1.32758 8 5 cbr 210 ------- 2 7.0 5.0 47 65
+ 1.33 7 2 cbr 210 ------- 2 7.0 5.0 66 86
- 1.33 7 2 cbr 210 ------- 2 7.0 5.0 66 86
r 1.33168 7 2 cbr 210 ------- 2 7.0 5.0 64 84
h 1.33168 2 8 cbr 210 ------- 2 7.0 5.0 64 84
+ 1.33168 2 8 cbr 210 ------- 2 7.0 5.0 56 76
- 1.33168 2 8 cbr 210 ------- 2 7.0 5.0 56 76
r 1.33258 8 5 cbr 210 ------- 2 7.0 5.0 48 66
+ 1.335 7 2 cbr 210 ------- 2 7.0 5.0 67 87
- 1.335 7 2 cbr 210 ------- 2 7.0 5.0 67 87
r 1.33668 7 2 cbr 210 ------- 2 7.0 5.0 65 85
h 1.33668 2 8 cbr 210 ------- 2 7.0 5.0 65 85
+ 1.33668 2 8 cbr 210 ------- 2 7.0 5.0 57 77
- 1.33668 2 8 cbr 210 ------- 2 7.0 5.0 57 77
r 1.33758 8 5 cbr 210 ------- 2 7.0 5.0 49 67
+ 1.34 7 2 cbr 210 ------- 2 7.0 5.0 68 88
- 1.34 7 2 cbr 210 ------- 2 7.0 5.0 68 88
r 1.34168 7 2 cbr 210 ------- 2 7.0 5.0 66 86
h 1.34168 2 8 cbr 210 ------- 2 7.0 5.0 66 86
+ 1.34168 2 8 cbr 210 ------- 2 7.0 5.0 58 78
- 1.34168 2 8 cbr 210 ------- 2 7.0 5.0 58 78
r 1.34258 8 5 cbr 210 ------- 2 7.0 5.0 50 68
+ 1.345 7 2 cbr 210 ------- 2 7.0 5.0 69 89
- 1.345 7 2 cbr 210 ------- 2 7.0 5.0 69 89
r 1.34668 7 2 cbr 210 ------- 2 7.0 5.0 67 87
h 1.34668 2 8 cbr 210 ------- 2 7.0 5.0 67 87
+ 1.34668 2 8 cbr 210 ------- 2 7.0 5.0 59 79
- 1.34668 2 8 cbr 210 ------- 2 7.0 5.0 59 79
r 1.34758 8 5 cbr 210 ------- 2 7.0 5.0 51 69
+ 1.35 7 2 cbr 210 ------- 2 7.0 5.0 70 90
- 1.35 7 2 cbr 210 ------- 2 7.0 5.0 70 90
r 1.35168 7 2 cbr 210 ------- 2 7.0 5.0 68 88
h 1.35168 2 8 cbr 210 ------- 2 7.0 5.0 68 88
+ 1.35168 2 8 cbr 210 ------- 2 7.0 5.0 60 80
- 1.35168 2 8 cbr 210 ------- 2 7.0 5.0 60 80
r 1.35258 8 5 cbr 210 ------- 2 7.0 5.0 52 70
+ 1.355 7 2 cbr 210 ------- 2 7.0 5.0 71 91
- 1.355 7 2 cbr 210 ------- 2 7.0 5.0 71 91
r 1.35668 7 2 cbr 210 ------- 2 7.0 5.0 69 89
h 1.35668 2 8 cbr 210 ------- 2 7.0 5.0 69 89
+ 1.35668 2 8 cbr 210 ------- 2 7.0 5.0 61 81
- 1.35668 2 8 cbr 210 ------- 2 7.0 5.0 61 81
r 1.35758 8 5 cbr 210 ------- 2 7.0 5.0 53 72
+ 1.36 7 2 cbr 210 ------- 2 7.0 5.0 72 92
- 1.36 7 2 cbr 210 ------- 2 7.0 5.0 72 92
r 1.36168 7 2 cbr 210 ------- 2 7.0 5.0 70 90
h 1.36168 2 8 cbr 210 ------- 2 7.0 5.0 70 90
+ 1.36168 2 8 cbr 210 ------- 2 7.0 5.0 62 82
- 1.36168 2 8 cbr 210 ------- 2 7.0 5.0 62 82
r 1.36306 8 6 tcp 1040 ------- 1 0.0 6.0 11 71
h 1.36306 6 8 ack 40 ------- 1 6.0 0.0 4 93
r 1.364008 8 5 cbr 210 ------- 2 7.0 5.0 54 74
+ 1.365 7 2 cbr 210 ------- 2 7.0 5.0 73 94
- 1.365 7 2 cbr 210 ------- 2 7.0 5.0 73 94
r 1.36668 7 2 cbr 210 ------- 2 7.0 5.0 71 91
h 1.36668 2 8 cbr 210 ------- 2 7.0 5.0 71 91
+ 1.36668 2 8 cbr 210 ------- 2 7.0 5.0 63 83
- 1.36668 2 8 cbr 210 ------- 2 7.0 5.0 63 83
r 1.36758 8 5 cbr 210 ------- 2 7.0 5.0 55 75
+ 1.37 7 2 cbr 210 ------- 2 7.0 5.0 74 95
- 1.37 7 2 cbr 210 ------- 2 7.0 5.0 74 95
r 1.37168 7 2 cbr 210 ------- 2 7.0 5.0 72 92
h 1.37168 2 8 cbr 210 ------- 2 7.0 5.0 72 92
+ 1.37168 2 8 cbr 210 ------- 2 7.0 5.0 64 84
- 1.37168 2 8 cbr 210 ------- 2 7.0 5.0 64 84
r 1.371848 8 6 tcp 1040 ------- 1 0.0 6.0 12 73
h 1.371848 6 8 ack 40 ------- 1 6.0 0.0 4 96
r 1.372796 8 5 cbr 210 ------- 2 7.0 5.0 56 76
+ 1.375 7 2 cbr 210 ------- 2 7.0 5.0 75 97
- 1.375 7 2 cbr 210 ------- 2 7.0 5.0 75 97
r 1.37668 7 2 cbr 210 ------- 2 7.0 5.0 73 94
h 1.37668 2 8 cbr 210 ------- 2 7.0 5.0 73 94
+ 1.37668 2 8 cbr 210 ------- 2 7.0 5.0 65 85
- 1.37668 2 8 cbr 210 ------- 2 7.0 5.0 65 85
r 1.37758 8 5 cbr 210 ------- 2 7.0 5.0 57 77
+ 1.38 7 2 cbr 210 ------- 2 7.0 5.0 76 98
- 1.38 7 2 cbr 210 ------- 2 7.0 5.0 76 98
r 1.38168 7 2 cbr 210 ------- 2 7.0 5.0 74 95
h 1.38168 2 8 cbr 210 ------- 2 7.0 5.0 74 95
+ 1.38168 2 8 cbr 210 ------- 2 7.0 5.0 66 86
- 1.38168 2 8 cbr 210 ------- 2 7.0 5.0 66 86
r 1.38258 8 5 cbr 210 ------- 2 7.0 5.0 58 78
+ 1.385 7 2 cbr 210 ------- 2 7.0 5.0 77 99
- 1.385 7 2 cbr 210 ------- 2 7.0 5.0 77 99
r 1.38668 7 2 cbr 210 ------- 2 7.0 5.0 75 97
h 1.38668 2 8 cbr 210 ------- 2 7.0 5.0 75 97
+ 1.38668 2 8 cbr 210 ------- 2 7.0 5.0 67 87
- 1.38668 2 8 cbr 210 ------- 2 7.0 5.0 67 87
r 1.38758 8 5 cbr 210 ------- 2 7.0 5.0 59 79
+ 1.39 7 2 cbr 210 ------- 2 7.0 5.0 78 100
- 1.39 7 2 cbr 210 ------- 2 7.0 5.0 78 100
r 1.39168 7 2 cbr 210 ------- 2 7.0 5.0 76 98
h 1.39168 2 8 cbr 210 ------- 2 7.0 5.0 76 98
+ 1.39168 2 8 cbr 210 ------- 2 7.0 5.0 68 88
- 1.39168 2 8 cbr 210 ------- 2 7.0 5.0 68 88
r 1.39258 8 5 cbr 210 ------- 2 7.0 5.0 60 80
+ 1.395 7 2 cbr 210 ------- 2 7.0 5.0 79 101
- 1.395 7 2 cbr 210 ------- 2 7.0 5.0 79 101
r 1.39668 7 2 cbr 210 ------- 2 7.0 5.0 77 99
h 1.39668 2 8 cbr 210 ------- 2 7.0 5.0 77 99
+ 1.39668 2 8 cbr 210 ------- 2 7.0 5.0 69 89
- 1.39668 2 8 cbr 210 ------- 2 7.0 5.0 69 89
r 1.39758 8 5 cbr 210 ------- 2 7.0 5.0 61 81
+ 1.4 7 2 cbr 210 ------- 2 7.0 5.0 80 102
- 1.4 7 2 cbr 210 ------- 2 7.0 5.0 80 102
r 1.40168 7 2 cbr 210 ------- 2 7.0 5.0 78 100
h 1.40168 2 8 cbr 210 ------- 2 7.0 5.0 78 100
+ 1.40168 2 8 cbr 210 ------- 2 7.0 5.0 70 90
- 1.40168 2 8 cbr 210 ------- 2 7.0 5.0 70 90
r 1.40258 8 5 cbr 210 ------- 2 7.0 5.0 62 82
+ 1.40306 6 8 ack 40 ------- 1 6.0 0.0 4 93
- 1.40306 6 8 ack 40 ------- 1 6.0 0.0 4 93
+ 1.405 7 2 cbr 210 ------- 2 7.0 5.0 81 103
- 1.405 7 2 cbr 210 ------- 2 7.0 5.0 81 103
r 1.40668 7 2 cbr 210 ------- 2 7.0 5.0 79 101
h 1.40668 2 8 cbr 210 ------- 2 7.0 5.0 79 101
+ 1.40668 2 8 cbr 210 ------- 2 7.0 5.0 71 91
- 1.40668 2 8 cbr 210 ------- 2 7.0 5.0 71 91
r 1.40758 8 5 cbr 210 ------- 2 7.0 5.0 63 83
+ 1.41 7 2 cbr 210 ------- 2 7.0 5.0 82 104
- 1.41 7 2 cbr 210 ------- 2 7.0 5.0 82 104
r 1.41168 7 2 cbr 210 ------- 2 7.0 5.0 80 102
h 1.41168 2 8 cbr 210 ------- 2 7.0 5.0 80 102
+ 1.41168 2 8 cbr 210 ------- 2 7.0 5.0 72 92
- 1.41168 2 8 cbr 210 ------- 2 7.0 5.0 72 92
+ 1.411848 6 8 ack 40 ------- 1 6.0 0.0 4 96
- 1.411848 6 8 ack 40 ------- 1 6.0 0.0 4 96
r 1.41258 8 5 cbr 210 ------- 2 7.0 5.0 64 84
+ 1.415 7 2 cbr 210 ------- 2 7.0 5.0 83 105
- 1.415 7 2 cbr 210 ------- 2 7.0 5.0 83 105