+ 0.5 0 1 tcp 40 ------- 1 0.0 6.0 0 0
- 0.5 0 1 tcp 40 ------- 1 0.0 6.0 0 0
r 0.51032 0 1 tcp 40 ------- 1 0.0 6.0 0 0
h 0.51032 1 7 tcp 40 ------- 1 0.0 6.0 0 0
+ 0.55032 1 7 tcp 40 ------- 1 0.0 6.0 0 0
- 0.55032 1 7 tcp 40 ------- 1 0.0 6.0 0 0
r 0.59058 7 6 tcp 40 ------- 1 0.0 6.0 0 0
h 0.59058 6 7 ack 40 ------- 1 6.0 0.0 0 1
+ 0.63058 6 7 ack 40 ------- 1 6.0 0.0 0 1
- 0.63058 6 7 ack 40 ------- 1 6.0 0.0 0 1
r 0.67084 7 1 ack 40 ------- 1 6.0 0.0 0 1
+ 0.67084 1 0 ack 40 ------- 1 6.0 0.0 0 1
- 0.67084 1 0 ack 40 ------- 1 6.0 0.0 0 1
r 0.68116 1 0 ack 40 ------- 1 6.0 0.0 0 1
+ 0.68116 0 1 tcp 1040 ------- 1 0.0 6.0 1 2
- 0.68116 0 1 tcp 1040 ------- 1 0.0 6.0 1 2
+ 0.68116 0 1 tcp 1040 ------- 1 0.0 6.0 2 3
- 0.68948 0 1 tcp 1040 ------- 1 0.0 6.0 2 3
r 0.69948 0 1 tcp 1040 ------- 1 0.0 6.0 1 2
h 0.69948 1 7 tcp 1040 ------- 1 0.0 6.0 1 2
r 0.7078 0 1 tcp 1040 ------- 1 0.0 6.0 2 3
h 0.7078 1 7 tcp 1040 ------- 1 0.0 6.0 2 3
+ 0.73948 1 7 tcp 1040 ------- 1 0.0 6.0 1 2
- 0.73948 1 7 tcp 1040 ------- 1 0.0 6.0 1 2
+ 0.7478 1 7 tcp 1040 ------- 1 0.0 6.0 2 3
- 0.7478 1 7 tcp 1040 ------- 1 0.0 6.0 2 3
r 0.7837 7 6 tcp 1040 ------- 1 0.0 6.0 1 2
h 0.7837 6 7 ack 40 ------- 1 6.0 0.0 1 4
r 0.79202 7 6 tcp 1040 ------- 1 0.0 6.0 2 3
h 0.79202 6 7 ack 40 ------- 1 6.0 0.0 2 5
+ 0.8237 6 7 ack 40 ------- 1 6.0 0.0 1 4
- 0.8237 6 7 ack 40 ------- 1 6.0 0.0 1 4
+ 0.83202 6 7 ack 40 ------- 1 6.0 0.0 2 5
- 0.83202 6 7 ack 40 ------- 1 6.0 0.0 2 5
r 0.86396 7 1 ack 40 ------- 1 6.0 0.0 1 4
+ 0.86396 1 0 ack 40 ------- 1 6.0 0.0 1 4
- 0.86396 1 0 ack 40 ------- 1 6.0 0.0 1 4
r 0.87228 7 1 ack 40 ------- 1 6.0 0.0 2 5
+ 0.87228 1 0 ack 40 ------- 1 6.0 0.0 2 5
- 0.87228 1 0 ack 40 ------- 1 6.0 0.0 2 5
r 0.87428 1 0 ack 40 ------- 1 6.0 0.0 1 4
+ 0.87428 0 1 tcp 1040 ------- 1 0.0 6.0 3 6
- 0.87428 0 1 tcp 1040 ------- 1 0.0 6.0 3 6
+ 0.87428 0 1 tcp 1040 ------- 1 0.0 6.0 4 7
r 0.8826 1 0 ack 40 ------- 1 6.0 0.0 2 5
+ 0.8826 0 1 tcp 1040 ------- 1 0.0 6.0 5 8
+ 0.8826 0 1 tcp 1040 ------- 1 0.0 6.0 6 9
- 0.8826 0 1 tcp 1040 ------- 1 0.0 6.0 4 7
- 0.89092 0 1 tcp 1040 ------- 1 0.0 6.0 5 8
r 0.8926 0 1 tcp 1040 ------- 1 0.0 6.0 3 6
h 0.8926 1 7 tcp 1040 ------- 1 0.0 6.0 3 6
- 0.89924 0 1 tcp 1040 ------- 1 0.0 6.0 6 9
r 0.90092 0 1 tcp 1040 ------- 1 0.0 6.0 4 7
h 0.90092 1 7 tcp 1040 ------- 1 0.0 6.0 4 7
r 0.90924 0 1 tcp 1040 ------- 1 0.0 6.0 5 8
h 0.90924 1 7 tcp 1040 ------- 1 0.0 6.0 5 8
r 0.91756 0 1 tcp 1040 ------- 1 0.0 6.0 6 9
h 0.91756 1 7 tcp 1040 ------- 1 0.0 6.0 6 9
+ 0.9326 1 7 tcp 1040 ------- 1 0.0 6.0 3 6
- 0.9326 1 7 tcp 1040 ------- 1 0.0 6.0 3 6
+ 0.94092 1 7 tcp 1040 ------- 1 0.0 6.0 4 7
- 0.94092 1 7 tcp 1040 ------- 1 0.0 6.0 4 7
+ 0.94924 1 7 tcp 1040 ------- 1 0.0 6.0 5 8
- 0.94924 1 7 tcp 1040 ------- 1 0.0 6.0 5 8
+ 0.95756 1 7 tcp 1040 ------- 1 0.0 6.0 6 9
- 0.95756 1 7 tcp 1040 ------- 1 0.0 6.0 6 9
r 0.97682 7 6 tcp 1040 ------- 1 0.0 6.0 3 6
h 0.97682 6 7 ack 40 ------- 1 6.0 0.0 3 10
r 0.98514 7 6 tcp 1040 ------- 1 0.0 6.0 4 7
h 0.98514 6 7 ack 40 ------- 1 6.0 0.0 4 11
r 0.99346 7 6 tcp 1040 ------- 1 0.0 6.0 5 8
h 0.99346 6 7 ack 40 ------- 1 6.0 0.0 5 12
r 1.00178 7 6 tcp 1040 ------- 1 0.0 6.0 6 9
h 1.00178 6 7 ack 40 ------- 1 6.0 0.0 6 13
+ 1.01682 6 7 ack 40 ------- 1 6.0 0.0 3 10
- 1.01682 6 7 ack 40 ------- 1 6.0 0.0 3 10
+ 1.02514 6 7 ack 40 ------- 1 6.0 0.0 4 11
- 1.02514 6 7 ack 40 ------- 1 6.0 0.0 4 11
+ 1.03346 6 7 ack 40 ------- 1 6.0 0.0 5 12
- 1.03346 6 7 ack 40 ------- 1 6.0 0.0 5 12
+ 1.04178 6 7 ack 40 ------- 1 6.0 0.0 6 13
- 1.04178 6 7 ack 40 ------- 1 6.0 0.0 6 13
r 1.05708 7 1 ack 40 ------- 1 6.0 0.0 3 10
+ 1.05708 1 0 ack 40 ------- 1 6.0 0.0 3 10
- 1.05708 1 0 ack 40 ------- 1 6.0 0.0 3 10
r 1.0654 7 1 ack 40 ------- 1 6.0 0.0 4 11
+ 1.0654 1 0 ack 40 ------- 1 6.0 0.0 4 11
- 1.0654 1 0 ack 40 ------- 1 6.0 0.0 4 11
r 1.0674 1 0 ack 40 ------- 1 6.0 0.0 3 10
+ 1.0674 0 1 tcp 1040 ------- 1 0.0 6.0 7 14
- 1.0674 0 1 tcp 1040 ------- 1 0.0 6.0 7 14
+ 1.0674 0 1 tcp 1040 ------- 1 0.0 6.0 8 15
r 1.07372 7 1 ack 40 ------- 1 6.0 0.0 5 12
+ 1.07372 1 0 ack 40 ------- 1 6.0 0.0 5 12
- 1.07372 1 0 ack 40 ------- 1 6.0 0.0 5 12
r 1.07572 1 0 ack 40 ------- 1 6.0 0.0 4 11
+ 1.07572 0 1 tcp 1040 ------- 1 0.0 6.0 9 16
+ 1.07572 0 1 tcp 1040 ------- 1 0.0 6.0 10 17
- 1.07572 0 1 tcp 1040 ------- 1 0.0 6.0 8 15
r 1.08204 7 1 ack 40 ------- 1 6.0 0.0 6 13
+ 1.08204 1 0 ack 40 ------- 1 6.0 0.0 6 13
- 1.08204 1 0 ack 40 ------- 1 6.0 0.0 6 13
r 1.08404 1 0 ack 40 ------- 1 6.0 0.0 5 12
+ 1.08404 0 1 tcp 1040 ------- 1 0.0 6.0 11 18
+ 1.08404 0 1 tcp 1040 ------- 1 0.0 6.0 12 19
- 1.08404 0 1 tcp 1040 ------- 1 0.0 6.0 9 16
r 1.08572 0 1 tcp 1040 ------- 1 0.0 6.0 7 14
h 1.08572 1 7 tcp 1040 ------- 1 0.0 6.0 7 14
r 1.09236 1 0 ack 40 ------- 1 6.0 0.0 6 13
+ 1.09236 0 1 tcp 1040 ------- 1 0.0 6.0 13 20
+ 1.09236 0 1 tcp 1040 ------- 1 0.0 6.0 14 21
- 1.09236 0 1 tcp 1040 ------- 1 0.0 6.0 10 17
r 1.09404 0 1 tcp 1040 ------- 1 0.0 6.0 8 15
h 1.09404 1 7 tcp 1040 ------- 1 0.0 6.0 8 15
- 1.10068 0 1 tcp 1040 ------- 1 0.0 6.0 11 18
r 1.10236 0 1 tcp 1040 ------- 1 0.0 6.0 9 16
h 1.10236 1 7 tcp 1040 ------- 1 0.0 6.0 9 16
- 1.109 0 1 tcp 1040 ------- 1 0.0 6.0 12 19
r 1.11068 0 1 tcp 1040 ------- 1 0.0 6.0 10 17
h 1.11068 1 7 tcp 1040 ------- 1 0.0 6.0 10 17
- 1.11732 0 1 tcp 1040 ------- 1 0.0 6.0 13 20
r 1.119 0 1 tcp 1040 ------- 1 0.0 6.0 11 18
h 1.119 1 7 tcp 1040 ------- 1 0.0 6.0 11 18
- 1.12564 0 1 tcp 1040 ------- 1 0.0 6.0 14 21
+ 1.12572 1 7 tcp 1040 ------- 1 0.0 6.0 7 14
- 1.12572 1 7 tcp 1040 ------- 1 0.0 6.0 7 14
r 1.12732 0 1 tcp 1040 ------- 1 0.0 6.0 12 19
h 1.12732 1 7 tcp 1040 ------- 1 0.0 6.0 12 19
+ 1.13404 1 7 tcp 1040 ------- 1 0.0 6.0 8 15
- 1.13404 1 7 tcp 1040 ------- 1 0.0 6.0 8 15
r 1.13564 0 1 tcp 1040 ------- 1 0.0 6.0 13 20
h 1.13564 1 7 tcp 1040 ------- 1 0.0 6.0 13 20
+ 1.14236 1 7 tcp 1040 ------- 1 0.0 6.0 9 16
- 1.14236 1 7 tcp 1040 ------- 1 0.0 6.0 9 16
r 1.14396 0 1 tcp 1040 ------- 1 0.0 6.0 14 21
h 1.14396 1 7 tcp 1040 ------- 1 0.0 6.0 14 21
+ 1.15068 1 7 tcp 1040 ------- 1 0.0 6.0 10 17
- 1.15068 1 7 tcp 1040 ------- 1 0.0 6.0 10 17
+ 1.159 1 7 tcp 1040 ------- 1 0.0 6.0 11 18
- 1.159 1 7 tcp 1040 ------- 1 0.0 6.0 11 18
+ 1.16732 1 7 tcp 1040 ------- 1 0.0 6.0 12 19
- 1.16732 1 7 tcp 1040 ------- 1 0.0 6.0 12 19
r 1.16994 7 6 tcp 1040 ------- 1 0.0 6.0 7 14
h 1.16994 6 7 ack 40 ------- 1 6.0 0.0 7 22
+ 1.17564 1 7 tcp 1040 ------- 1 0.0 6.0 13 20
- 1.17564 1 7 tcp 1040 ------- 1 0.0 6.0 13 20
r 1.17826 7 6 tcp 1040 ------- 1 0.0 6.0 8 15
h 1.17826 6 7 ack 40 ------- 1 6.0 0.0 8 23
+ 1.18396 1 7 tcp 1040 ------- 1 0.0 6.0 14 21
- 1.18396 1 7 tcp 1040 ------- 1 0.0 6.0 14 21
r 1.18658 7 6 tcp 1040 ------- 1 0.0 6.0 9 16
h 1.18658 6 7 ack 40 ------- 1 6.0 0.0 9 24
r 1.1949 7 6 tcp 1040 ------- 1 0.0 6.0 10 17
h 1.1949 6 7 ack 40 ------- 1 6.0 0.0 10 25
r 1.20322 7 6 tcp 1040 ------- 1 0.0 6.0 11 18
h 1.20322 6 7 ack 40 ------- 1 6.0 0.0 11 26
+ 1.20994 6 7 ack 40 ------- 1 6.0 0.0 7 22
- 1.20994 6 7 ack 40 ------- 1 6.0 0.0 7 22
r 1.21154 7 6 tcp 1040 ------- 1 0.0 6.0 12 19
h 1.21154 6 7 ack 40 ------- 1 6.0 0.0 12 27
+ 1.21826 6 7 ack 40 ------- 1 6.0 0.0 8 23
- 1.21826 6 7 ack 40 ------- 1 6.0 0.0 8 23
r 1.21986 7 6 tcp 1040 ------- 1 0.0 6.0 13 20
h 1.21986 6 7 ack 40 ------- 1 6.0 0.0 13 28
+ 1.22658 6 7 ack 40 ------- 1 6.0 0.0 9 24
- 1.22658 6 7 ack 40 ------- 1 6.0 0.0 9 24
r 1.22818 7 6 tcp 1040 ------- 1 0.0 6.0 14 21
h 1.22818 6 7 ack 40 ------- 1 6.0 0.0 14 29
+ 1.2349 6 7 ack 40 ------- 1 6.0 0.0 10 25
- 1.2349 6 7 ack 40 ------- 1 6.0 0.0 10 25
+ 1.24322 6 7 ack 40 ------- 1 6.0 0.0 11 26
- 1.24322 6 7 ack 40 ------- 1 6.0 0.0 11 26
r 1.2502 7 1 ack 40 ------- 1 6.0 0.0 7 22
+ 1.2502 1 0 ack 40 ------- 1 6.0 0.0 7 22
- 1.2502 1 0 ack 40 ------- 1 6.0 0.0 7 22
+ 1.25154 6 7 ack 40 ------- 1 6.0 0.0 12 27
- 1.25154 6 7 ack 40 ------- 1 6.0 0.0 12 27
r 1.25852 7 1 ack 40 ------- 1 6.0 0.0 8 23
+ 1.25852 1 0 ack 40 ------- 1 6.0 0.0 8 23
- 1.25852 1 0 ack 40 ------- 1 6.0 0.0 8 23
+ 1.25986 6 7 ack 40 ------- 1 6.0 0.0 13 28
- 1.25986 6 7 ack 40 ------- 1 6.0 0.0 13 28
r 1.26052 1 0 ack 40 ------- 1 6.0 0.0 7 22
+ 1.26052 0 1 tcp 1040 ------- 1 0.0 6.0 15 30
- 1.26052 0 1 tcp 1040 ------- 1 0.0 6.0 15 30
+ 1.26052 0 1 tcp 1040 ------- 1 0.0 6.0 16 31
r 1.26684 7 1 ack 40 ------- 1 6.0 0.0 9 24
+ 1.26684 1 0 ack 40 ------- 1 6.0 0.0 9 24
- 1.26684 1 0 ack 40 ------- 1 6.0 0.0 9 24
+ 1.26818 6 7 ack 40 ------- 1 6.0 0.0 14 29
- 1.26818 6 7 ack 40 ------- 1 6.0 0.0 14 29
r 1.26884 1 0 ack 40 ------- 1 6.0 0.0 8 23
+ 1.26884 0 1 tcp 1040 ------- 1 0.0 6.0 17 32
+ 1.26884 0 1 tcp 1040 ------- 1 0.0 6.0 18 33
- 1.26884 0 1 tcp 1040 ------- 1 0.0 6.0 16 31
r 1.27516 7 1 ack 40 ------- 1 6.0 0.0 10 25
+ 1.27516 1 0 ack 40 ------- 1 6.0 0.0 10 25
- 1.27516 1 0 ack 40 ------- 1 6.0 0.0 10 25
r 1.27716 1 0 ack 40 ------- 1 6.0 0.0 9 24
+ 1.27716 0 1 tcp 1040 ------- 1 0.0 6.0 19 34
+ 1.27716 0 1 tcp 1040 ------- 1 0.0 6.0 20 35
- 1.27716 0 1 tcp 1040 ------- 1 0.0 6.0 17 32
r 1.27884 0 1 tcp 1040 ------- 1 0.0 6.0 15 30
h 1.27884 1 7 tcp 1040 ------- 1 0.0 6.0 15 30
r 1.28348 7 1 ack 40 ------- 1 6.0 0.0 11 26
+ 1.28348 1 0 ack 40 ------- 1 6.0 0.0 11 26
- 1.28348 1 0 ack 40 ------- 1 6.0 0.0 11 26
r 1.28548 1 0 ack 40 ------- 1 6.0 0.0 10 25
+ 1.28548 0 1 tcp 1040 ------- 1 0.0 6.0 21 36
+ 1.28548 0 1 tcp 1040 ------- 1 0.0 6.0 22 37
- 1.28548 0 1 tcp 1040 ------- 1 0.0 6.0 18 33
r 1.28716 0 1 tcp 1040 ------- 1 0.0 6.0 16 31
h 1.28716 1 7 tcp 1040 ------- 1 0.0 6.0 16 31
r 1.2918 7 1 ack 40 ------- 1 6.0 0.0 12 27
+ 1.2918 1 0 ack 40 ------- 1 6.0 0.0 12 27
- 1.2918 1 0 ack 40 ------- 1 6.0 0.0 12 27
r 1.2938 1 0 ack 40 ------- 1 6.0 0.0 11 26
+ 1.2938 0 1 tcp 1040 ------- 1 0.0 6.0 23 38
+ 1.2938 0 1 tcp 1040 ------- 1 0.0 6.0 24 39
- 1.2938 0 1 tcp 1040 ------- 1 0.0 6.0 19 34
r 1.29548 0 1 tcp 1040 ------- 1 0.0 6.0 17 32
h 1.29548 1 7 tcp 1040 ------- 1 0.0 6.0 17 32
r 1.30012 7 1 ack 40 ------- 1 6.0 0.0 13 28
+ 1.30012 1 0 ack 40 ------- 1 6.0 0.0 13 28
- 1.30012 1 0 ack 40 ------- 1 6.0 0.0 13 28
r 1.30212 1 0 ack 40 ------- 1 6.0 0.0 12 27
+ 1.30212 0 1 tcp 1040 ------- 1 0.0 6.0 25 40
+ 1.30212 0 1 tcp 1040 ------- 1 0.0 6.0 26 41
- 1.30212 0 1 tcp 1040 ------- 1 0.0 6.0 20 35
r 1.3038 0 1 tcp 1040 ------- 1 0.0 6.0 18 33
h 1.3038 1 7 tcp 1040 ------- 1 0.0 6.0 18 33
r 1.30844 7 1 ack 40 ------- 1 6.0 0.0 14 29
+ 1.30844 1 0 ack 40 ------- 1 6.0 0.0 14 29
- 1.30844 1 0 ack 40 ------- 1 6.0 0.0 14 29
r 1.31044 1 0 ack 40 ------- 1 6.0 0.0 13 28
+ 1.31044 0 1 tcp 1040 ------- 1 0.0 6.0 27 42
+ 1.31044 0 1 tcp 1040 ------- 1 0.0 6.0 28 43
- 1.31044 0 1 tcp 1040 ------- 1 0.0 6.0 21 36
r 1.31212 0 1 tcp 1040 ------- 1 0.0 6.0 19 34
h 1.31212 1 7 tcp 1040 ------- 1 0.0 6.0 19 34
r 1.31876 1 0 ack 40 ------- 1 6.0 0.0 14 29
+ 1.31876 0 1 tcp 1040 ------- 1 0.0 6.0 29 44
+ 1.31876 0 1 tcp 1040 ------- 1 0.0 6.0 30 45
- 1.31876 0 1 tcp 1040 ------- 1 0.0 6.0 22 37
+ 1.31884 1 7 tcp 1040 ------- 1 0.0 6.0 15 30
- 1.31884 1 7 tcp 1040 ------- 1 0.0 6.0 15 30
r 1.32044 0 1 tcp 1040 ------- 1 0.0 6.0 20 35
h 1.32044 1 7 tcp 1040 ------- 1 0.0 6.0 20 35
- 1.32708 0 1 tcp 1040 ------- 1 0.0 6.0 23 38
+ 1.32716 1 7 tcp 1040 ------- 1 0.0 6.0 16 31
- 1.32716 1 7 tcp 1040 ------- 1 0.0 6.0 16 31
r 1.32876 0 1 tcp 1040 ------- 1 0.0 6.0 21 36
h 1.32876 1 7 tcp 1040 ------- 1 0.0 6.0 21 36
- 1.3354 0 1 tcp 1040 ------- 1 0.0 6.0 24 39
+ 1.33548 1 7 tcp 1040 ------- 1 0.0 6.0 17 32
- 1.33548 1 7 tcp 1040 ------- 1 0.0 6.0 17 32
r 1.33708 0 1 tcp 1040 ------- 1 0.0 6.0 22 37
h 1.33708 1 7 tcp 1040 ------- 1 0.0 6.0 22 37
- 1.34372 0 1 tcp 1040 ------- 1 0.0 6.0 25 40
+ 1.3438 1 7 tcp 1040 ------- 1 0.0 6.0 18 33
- 1.3438 1 7 tcp 1040 ------- 1 0.0 6.0 18 33
r 1.3454 0 1 tcp 1040 ------- 1 0.0 6.0 23 38
h 1.3454 1 7 tcp 1040 ------- 1 0.0 6.0 23 38
- 1.35204 0 1 tcp 1040 ------- 1 0.0 6.0 26 41
+ 1.35212 1 7 tcp 1040 ------- 1 0.0 6.0 19 34
- 1.35212 1 7 tcp 1040 ------- 1 0.0 6.0 19 34
r 1.35372 0 1 tcp 1040 ------- 1 0.0 6.0 24 39
h 1.35372 1 7 tcp 1040 ------- 1 0.0 6.0 24 39
- 1.36036 0 1 tcp 1040 ------- 1 0.0 6.0 27 42
+ 1.36044 1 7 tcp 1040 ------- 1 0.0 6.0 20 35
- 1.36044 1 7 tcp 1040 ------- 1 0.0 6.0 20 35
r 1.36204 0 1 tcp 1040 ------- 1 0.0 6.0 25 40
h 1.36204 1 7 tcp 1040 ------- 1 0.0 6.0 25 40
r 1.36306 7 6 tcp 1040 ------- 1 0.0 6.0 15 30
h 1.36306 6 7 ack 40 ------- 1 6.0 0.0 15 46
- 1.36868 0 1 tcp 1040 ------- 1 0.0 6.0 28 43
+ 1.36876 1 7 tcp 1040 ------- 1 0.0 6.0 21 36
- 1.36876 1 7 tcp 1040 ------- 1 0.0 6.0 21 36
r 1.37036 0 1 tcp 1040 ------- 1 0.0 6.0 26 41
h 1.37036 1 7 tcp 1040 ------- 1 0.0 6.0 26 41
r 1.37138 7 6 tcp 1040 ------- 1 0.0 6.0 16 31
h 1.37138 6 7 ack 40 ------- 1 6.0 0.0 16 47
- 1.377 0 1 tcp 1040 ------- 1 0.0 6.0 29 44
+ 1.37708 1 7 tcp 1040 ------- 1 0.0 6.0 22 37
- 1.37708 1 7 tcp 1040 ------- 1 0.0 6.0 22 37
r 1.37868 0 1 tcp 1040 ------- 1 0.0 6.0 27 42
h 1.37868 1 7 tcp 1040 ------- 1 0.0 6.0 27 42
r 1.3797 7 6 tcp 1040 ------- 1 0.0 6.0 17 32
h 1.3797 6 7 ack 40 ------- 1 6.0 0.0 17 48
- 1.38532 0 1 tcp 1040 ------- 1 0.0 6.0 30 45
+ 1.3854 1 7 tcp 1040 ------- 1 0.0 6.0 23 38
- 1.3854 1 7 tcp 1040 ------- 1 0.0 6.0 23 38
r 1.387 0 1 tcp 1040 ------- 1 0.0 6.0 28 43
h 1.387 1 7 tcp 1040 ------- 1 0.0 6.0 28 43
r 1.38802 7 6 tcp 1040 ------- 1 0.0 6.0 18 33
h 1.38802 6 7 ack 40 ------- 1 6.0 0.0 18 49
+ 1.39372 1 7 tcp 1040 ------- 1 0.0 6.0 24 39
- 1.39372 1 7 tcp 1040 ------- 1 0.0 6.0 24 39
r 1.39532 0 1 tcp 1040 ------- 1 0.0 6.0 29 44
h 1.39532 1 7 tcp 1040 ------- 1 0.0 6.0 29 44
r 1.39634 7 6 tcp 1040 ------- 1 0.0 6.0 19 34
h 1.39634 6 7 ack 40 ------- 1 6.0 0.0 19 50
+ 1.40204 1 7 tcp 1040 ------- 1 0.0 6.0 25 40
- 1.40204 1 7 tcp 1040 ------- 1 0.0 6.0 25 40
+ 1.40306 6 7 ack 40 ------- 1 6.0 0.0 15 46
- 1.40306 6 7 ack 40 ------- 1 6.0 0.0 15 46
r 1.40364 0 1 tcp 1040 ------- 1 0.0 6.0 30 45
h 1.40364 1 7 tcp 1040 ------- 1 0.0 6.0 30 45
r 1.40466 7 6 tcp 1040 ------- 1 0.0 6.0 20 35
h 1.40466 6 7 ack 40 ------- 1 6.0 0.0 20 51
+ 1.41036 1 7 tcp 1040 ------- 1 0.0 6.0 26 41
- 1.41036 1 7 tcp 1040 ------- 1 0.0 6.0 26 41
+ 1.41138 6 7 ack 40 ------- 1 6.0 0.0 16 47
- 1.41138 6 7 ack 40 ------- 1 6.0 0.0 16 47
r 1.41298 7 6 tcp 1040 ------- 1 0.0 6.0 21 36
h 1.41298 6 7 ack 40 ------- 1 6.0 0.0 21 52
+ 1.41868 1 7 tcp 1040 ------- 1 0.0 6.0 27 42
- 1.41868 1 7 tcp 1040 ------- 1 0.0 6.0 27 42
+ 1.4197 6 7 ack 40 ------- 1 6.0 0.0 17 48
- 1.4197 6 7 ack 40 ------- 1 6.0 0.0 17 48
r 1.4213 7 6 tcp 1040 ------- 1 0.0 6.0 22 37
h 1.4213 6 7 ack 40 ------- 1 6.0 0.0 22 53
+ 1.427 1 7 tcp 1040 ------- 1 0.0 6.0 28 43
- 1.427 1 7 tcp 1040 ------- 1 0.0 6.0 28 43
+ 1.42802 6 7 ack 40 ------- 1 6.0 0.0 18 49
- 1.42802 6 7 ack 40 ------- 1 6.0 0.0 18 49
r 1.42962 7 6 tcp 1040 ------- 1 0.0 6.0 23 38
h 1.42962 6 7 ack 40 ------- 1 6.0 0.0 23 54
+ 1.43532 1 7 tcp 1040 ------- 1 0.0 6.0 29 44
- 1.43532 1 7 tcp 1040 ------- 1 0.0 6.0 29 44
+ 1.43634 6 7 ack 40 ------- 1 6.0 0.0 19 50
- 1.43634 6 7 ack 40 ------- 1 6.0 0.0 19 50
r 1.43794 7 6 tcp 1040 ------- 1 0.0 6.0 24 39
h 1.43794 6 7 ack 40 ------- 1 6.0 0.0 24 55
+ 1.44364 1 7 tcp 1040 ------- 1 0.0 6.0 30 45
- 1.44364 1 7 tcp 1040 ------- 1 0.0 6.0 30 45
+ 1.44466 6 7 ack 40 ------- 1 6.0 0.0 20 51
- 1.44466 6 7 ack 40 ------- 1 6.0 0.0 20 51
r 1.44626 7 6 tcp 1040 ------- 1 0.0 6.0 25 40
h 1.44626 6 7 ack 40 ------- 1 6.0 0.0 25 56
r 1.446568 7 1 ack 40 ------- 1 6.0 0.0 15 46
+ 1.446568 1 0 ack 40 ------- 1 6.0 0.0 15 46
- 1.446568 1 0 ack 40 ------- 1 6.0 0.0 15 46
+ 1.45298 6 7 ack 40 ------- 1 6.0 0.0 21 52
- 1.45298 6 7 ack 40 ------- 1 6.0 0.0 21 52
r 1.45458 7 6 tcp 1040 ------- 1 0.0 6.0 26 41
h 1.45458 6 7 ack 40 ------- 1 6.0 0.0 26 57
r 1.454888 7 1 ack 40 ------- 1 6.0 0.0 16 47
+ 1.454888 1 0 ack 40 ------- 1 6.0 0.0 16 47
- 1.454888 1 0 ack 40 ------- 1 6.0 0.0 16 47
r 1.456888 1 0 ack 40 ------- 1 6.0 0.0 15 46
+ 1.456888 0 1 tcp 1040 ------- 1 0.0 6.0 31 58
- 1.456888 0 1 tcp 1040 ------- 1 0.0 6.0 31 58
+ 1.456888 0 1 tcp 1040 ------- 1 0.0 6.0 32 59
+ 1.4613 6 7 ack 40 ------- 1 6.0 0.0 22 53
- 1.4613 6 7 ack 40 ------- 1 6.0 0.0 22 53
r 1.4629 7 6 tcp 1040 ------- 1 0.0 6.0 27 42
h 1.4629 6 7 ack 40 ------- 1 6.0 0.0 27 60
r 1.463208 7 1 ack 40 ------- 1 6.0 0.0 17 48
+ 1.463208 1 0 ack 40 ------- 1 6.0 0.0 17 48
- 1.463208 1 0 ack 40 ------- 1 6.0 0.0 17 48
r 1.465208 1 0 ack 40 ------- 1 6.0 0.0 16 47
+ 1.465208 0 1 tcp 1040 ------- 1 0.0 6.0 33 61
+ 1.465208 0 1 tcp 1040 ------- 1 0.0 6.0 34 62
- 1.465208 0 1 tcp 1040 ------- 1 0.0 6.0 32 59
+ 1.46962 6 7 ack 40 ------- 1 6.0 0.0 23 54
- 1.46962 6 7 ack 40 ------- 1 6.0 0.0 23 54
r 1.47122 7 6 tcp 1040 ------- 1 0.0 6.0 28 43
h 1.47122 6 7 ack 40 ------- 1 6.0 0.0 28 63
r 1.471528 7 1 ack 40 ------- 1 6.0 0.0 18 49
+ 1.471528 1 0 ack 40 ------- 1 6.0 0.0 18 49
- 1.471528 1 0 ack 40 ------- 1 6.0 0.0 18 49
r 1.473528 1 0 ack 40 ------- 1 6.0 0.0 17 48
+ 1.473528 0 1 tcp 1040 ------- 1 0.0 6.0 35 64
+ 1.473528 0 1 tcp 1040 ------- 1 0.0 6.0 36 65
- 1.473528 0 1 tcp 1040 ------- 1 0.0 6.0 33 61
r 1.475208 0 1 tcp 1040 ------- 1 0.0 6.0 31 58
h 1.475208 1 7 tcp 1040 ------- 1 0.0 6.0 31 58
+ 1.47794 6 7 ack 40 ------- 1 6.0 0.0 24 55
- 1.47794 6 7 ack 40 ------- 1 6.0 0.0 24 55
r 1.47954 7 6 tcp 1040 ------- 1 0.0 6.0 29 44
h 1.47954 6 7 ack 40 ------- 1 6.0 0.0 29 66
r 1.479848 7 1 ack 40 ------- 1 6.0 0.0 19 50
+ 1.479848 1 0 ack 40 ------- 1 6.0 0.0 19 50
- 1.479848 1 0 ack 40 ------- 1 6.0 0.0 19 50
r 1.481848 1 0 ack 40 ------- 1 6.0 0.0 18 49
+ 1.481848 0 1 tcp 1040 ------- 1 0.0 6.0 37 67
+ 1.481848 0 1 tcp 1040 ------- 1 0.0 6.0 38 68
- 1.481848 0 1 tcp 1040 ------- 1 0.0 6.0 34 62
r 1.483528 0 1 tcp 1040 ------- 1 0.0 6.0 32 59
h 1.483528 1 7 tcp 1040 ------- 1 0.0 6.0 32 59
+ 1.48626 6 7 ack 40 ------- 1 6.0 0.0 25 56
- 1.48626 6 7 ack 40 ------- 1 6.0 0.0 25 56
r 1.48786 7 6 tcp 1040 ------- 1 0.0 6.0 30 45
h 1.48786 6 7 ack 40 ------- 1 6.0 0.0 30 69
r 1.488168 7 1 ack 40 ------- 1 6.0 0.0 20 51
+ 1.488168 1 0 ack 40 ------- 1 6.0 0.0 20 51
- 1.488168 1 0 ack 40 ------- 1 6.0 0.0 20 51
r 1.490168 1 0 ack 40 ------- 1 6.0 0.0 19 50
+ 1.490168 0 1 tcp 1040 ------- 1 0.0 6.0 39 70
- 1.490168 0 1 tcp 1040 ------- 1 0.0 6.0 35 64
r 1.491848 0 1 tcp 1040 ------- 1 0.0 6.0 33 61
h 1.491848 1 7 tcp 1040 ------- 1 0.0 6.0 33 61
r 1.49324 7 1 ack 40 ------- 1 6.0 0.0 21 52
+ 1.49324 1 0 ack 40 ------- 1 6.0 0.0 21 52
- 1.49324 1 0 ack 40 ------- 1 6.0 0.0 21 52
+ 1.49458 6 7 ack 40 ------- 1 6.0 0.0 26 57
- 1.49458 6 7 ack 40 ------- 1 6.0 0.0 26 57
r 1.498488 1 0 ack 40 ------- 1 6.0 0.0 20 51
+ 1.498488 0 1 tcp 1040 ------- 1 0.0 6.0 40 71
- 1.498488 0 1 tcp 1040 ------- 1 0.0 6.0 36 65
r 1.500168 0 1 tcp 1040 ------- 1 0.0 6.0 34 62
h 1.500168 1 7 tcp 1040 ------- 1 0.0 6.0 34 62
r 1.50156 7 1 ack 40 ------- 1 6.0 0.0 22 53
+ 1.50156 1 0 ack 40 ------- 1 6.0 0.0 22 53
- 1.50156 1 0 ack 40 ------- 1 6.0 0.0 22 53
+ 1.5029 6 7 ack 40 ------- 1 6.0 0.0 27 60
- 1.5029 6 7 ack 40 ------- 1 6.0 0.0 27 60
r 1.50356 1 0 ack 40 ------- 1 6.0 0.0 21 52
+ 1.50356 0 1 tcp 1040 ------- 1 0.0 6.0 41 72
- 1.506808 0 1 tcp 1040 ------- 1 0.0 6.0 37 67
r 1.508488 0 1 tcp 1040 ------- 1 0.0 6.0 35 64
h 1.508488 1 7 tcp 1040 ------- 1 0.0 6.0 35 64
r 1.50988 7 1 ack 40 ------- 1 6.0 0.0 23 54
+ 1.50988 1 0 ack 40 ------- 1 6.0 0.0 23 54
- 1.50988 1 0 ack 40 ------- 1 6.0 0.0 23 54
+ 1.51122 6 7 ack 40 ------- 1 6.0 0.0 28 63
- 1.51122 6 7 ack 40 ------- 1 6.0 0.0 28 63
r 1.51188 1 0 ack 40 ------- 1 6.0 0.0 22 53
+ 1.51188 0 1 tcp 1040 ------- 1 0.0 6.0 42 73
- 1.515128 0 1 tcp 1040 ------- 1 0.0 6.0 38 68
+ 1.515208 1 7 tcp 1040 ------- 1 0.0 6.0 31 58
- 1.515208 1 7 tcp 1040 ------- 1 0.0 6.0 31 58
r 1.516808 0 1 tcp 1040 ------- 1 0.0 6.0 36 65
h 1.516808 1 7 tcp 1040 ------- 1 0.0 6.0 36 65
r 1.5182 7 1 ack 40 ------- 1 6.0 0.0 24 55
+ 1.5182 1 0 ack 40 ------- 1 6.0 0.0 24 55
- 1.5182 1 0 ack 40 ------- 1 6.0 0.0 24 55
+ 1.51954 6 7 ack 40 ------- 1 6.0 0.0 29 66
- 1.51954 6 7 ack 40 ------- 1 6.0 0.0 29 66
r 1.5202 1 0 ack 40 ------- 1 6.0 0.0 23 54
+ 1.5202 0 1 tcp 1040 ------- 1 0.0 6.0 43 74
- 1.523448 0 1 tcp 1040 ------- 1 0.0 6.0 39 70
+ 1.523528 1 7 tcp 1040 ------- 1 0.0 6.0 32 59
- 1.523528 1 7 tcp 1040 ------- 1 0.0 6.0 32 59
r 1.525128 0 1 tcp 1040 ------- 1 0.0 6.0 37 67
h 1.525128 1 7 tcp 1040 ------- 1 0.0 6.0 37 67
r 1.52652 7 1 ack 40 ------- 1 6.0 0.0 25 56
+ 1.52652 1 0 ack 40 ------- 1 6.0 0.0 25 56
- 1.52652 1 0 ack 40 ------- 1 6.0 0.0 25 56
+ 1.52786 6 7 ack 40 ------- 1 6.0 0.0 30 69
- 1.52786 6 7 ack 40 ------- 1 6.0 0.0 30 69
r 1.52852 1 0 ack 40 ------- 1 6.0 0.0 24 55
+ 1.52852 0 1 tcp 1040 ------- 1 0.0 6.0 44 75
- 1.531768 0 1 tcp 1040 ------- 1 0.0 6.0 40 71
+ 1.531848 1 7 tcp 1040 ------- 1 0.0 6.0 33 61
- 1.531848 1 7 tcp 1040 ------- 1 0.0 6.0 33 61
r 1.533448 0 1 tcp 1040 ------- 1 0.0 6.0 38 68
h 1.533448 1 7 tcp 1040 ------- 1 0.0 6.0 38 68
r 1.53484 7 1 ack 40 ------- 1 6.0 0.0 26 57
+ 1.53484 1 0 ack 40 ------- 1 6.0 0.0 26 57
- 1.53484 1 0 ack 40 ------- 1 6.0 0.0 26 57
r 1.53684 1 0 ack 40 ------- 1 6.0 0.0 25 56
+ 1.53684 0 1 tcp 1040 ------- 1 0.0 6.0 45 76
- 1.540088 0 1 tcp 1040 ------- 1 0.0 6.0 41 72
+ 1.540168 1 7 tcp 1040 ------- 1 0.0 6.0 34 62
- 1.540168 1 7 tcp 1040 ------- 1 0.0 6.0 34 62
r 1.541768 0 1 tcp 1040 ------- 1 0.0 6.0 39 70
h 1.541768 1 7 tcp 1040 ------- 1 0.0 6.0 39 70
r 1.54316 7 1 ack 40 ------- 1 6.0 0.0 27 60
+ 1.54316 1 0 ack 40 ------- 1 6.0 0.0 27 60
- 1.54316 1 0 ack 40 ------- 1 6.0 0.0 27 60
r 1.54516 1 0 ack 40 ------- 1 6.0 0.0 26 57
+ 1.54516 0 1 tcp 1040 ------- 1 0.0 6.0 46 77
- 1.548408 0 1 tcp 1040 ------- 1 0.0 6.0 42 73
+ 1.548488 1 7 tcp 1040 ------- 1 0.0 6.0 35 64
- 1.548488 1 7 tcp 1040 ------- 1 0.0 6.0 35 64
r 1.550088 0 1 tcp 1040 ------- 1 0.0 6.0 40 71
h 1.550088 1 7 tcp 1040 ------- 1 0.0 6.0 40 71
r 1.55148 7 1 ack 40 ------- 1 6.0 0.0 28 63
+ 1.55148 1 0 ack 40 ------- 1 6.0 0.0 28 63
- 1.55148 1 0 ack 40 ------- 1 6.0 0.0 28 63
r 1.55348 1 0 ack 40 ------- 1 6.0 0.0 27 60
+ 1.55348 0 1 tcp 1040 ------- 1 0.0 6.0 47 78
- 1.556728 0 1 tcp 1040 ------- 1 0.0 6.0 43 74
+ 1.556808 1 7 tcp 1040 ------- 1 0.0 6.0 36 65
- 1.556808 1 7 tcp 1040 ------- 1 0.0 6.0 36 65
r 1.558408 0 1 tcp 1040 ------- 1 0.0 6.0 41 72
h 1.558408 1 7 tcp 1040 ------- 1 0.0 6.0 41 72
r 1.559428 7 6 tcp 1040 ------- 1 0.0 6.0 31 58
h 1.559428 6 7 ack 40 ------- 1 6.0 0.0 31 79
r 1.5598 7 1 ack 40 ------- 1 6.0 0.0 29 66
+ 1.5598 1 0 ack 40 ------- 1 6.0 0.0 29 66
- 1.5598 1 0 ack 40 ------- 1 6.0 0.0 29 66
r 1.5618 1 0 ack 40 ------- 1 6.0 0.0 28 63
+ 1.5618 0 1 tcp 1040 ------- 1 0.0 6.0 48 80
- 1.565048 0 1 tcp 1040 ------- 1 0.0 6.0 44 75
+ 1.565128 1 7 tcp 1040 ------- 1 0.0 6.0 37 67
- 1.565128 1 7 tcp 1040 ------- 1 0.0 6.0 37 67
r 1.566728 0 1 tcp 1040 ------- 1 0.0 6.0 42 73
h 1.566728 1 7 tcp 1040 ------- 1 0.0 6.0 42 73
r 1.567748 7 6 tcp 1040 ------- 1 0.0 6.0 32 59
h 1.567748 6 7 ack 40 ------- 1 6.0 0.0 32 81
r 1.56812 7 1 ack 40 ------- 1 6.0 0.0 30 69
+ 1.56812 1 0 ack 40 ------- 1 6.0 0.0 30 69
- 1.56812 1 0 ack 40 ------- 1 6.0 0.0 30 69
r 1.57012 1 0 ack 40 ------- 1 6.0 0.0 29 66
+ 1.57012 0 1 tcp 1040 ------- 1 0.0 6.0 49 82
- 1.573368 0 1 tcp 1040 ------- 1 0.0 6.0 45 76
+ 1.573448 1 7 tcp 1040 ------- 1 0.0 6.0 38 68
- 1.573448 1 7 tcp 1040 ------- 1 0.0 6.0 38 68
r 1.575048 0 1 tcp 1040 ------- 1 0.0 6.0 43 74
h 1.575048 1 7 tcp 1040 ------- 1 0.0 6.0 43 74
r 1.576068 7 6 tcp 1040 ------- 1 0.0 6.0 33 61
h 1.576068 6 7 ack 40 ------- 1 6.0 0.0 33 83
r 1.57844 1 0 ack 40 ------- 1 6.0 0.0 30 69
+ 1.57844 0 1 tcp 1040 ------- 1 0.0 6.0 50 84
- 1.581688 0 1 tcp 1040 ------- 1 0.0 6.0 46 77
+ 1.581768 1 7 tcp 1040 ------- 1 0.0 6.0 39 70
- 1.581768 1 7 tcp 1040 ------- 1 0.0 6.0 39 70
r 1.583368 0 1 tcp 1040 ------- 1 0.0 6.0 44 75
h 1.583368 1 7 tcp 1040 ------- 1 0.0 6.0 44 75
r 1.584388 7 6 tcp 1040 ------- 1 0.0 6.0 34 62
h 1.584388 6 7 ack 40 ------- 1 6.0 0.0 34 85
- 1.590008 0 1 tcp 1040 ------- 1 0.0 6.0 47 78
+ 1.590088 1 7 tcp 1040 ------- 1 0.0 6.0 40 71
- 1.590088 1 7 tcp 1040 ------- 1 0.0 6.0 40 71
r 1.591688 0 1 tcp 1040 ------- 1 0.0 6.0 45 76
h 1.591688 1 7 tcp 1040 ------- 1 0.0 6.0 45 76
r 1.592708 7 6 tcp 1040 ------- 1 0.0 6.0 35 64
h 1.592708 6 7 ack 40 ------- 1 6.0 0.0 35 86
- 1.598328 0 1 tcp 1040 ------- 1 0.0 6.0 48 80
+ 1.598408 1 7 tcp 1040 ------- 1 0.0 6.0 41 72
- 1.598408 1 7 tcp 1040 ------- 1 0.0 6.0 41 72
+ 1.599428 6 7 ack 40 ------- 1 6.0 0.0 31 79
- 1.599428 6 7 ack 40 ------- 1 6.0 0.0 31 79
r 1.600008 0 1 tcp 1040 ------- 1 0.0 6.0 46 77
h 1.600008 1 7 tcp 1040 ------- 1 0.0 6.0 46 77
r 1.601028 7 6 tcp 1040 ------- 1 0.0 6.0 36 65
h 1.601028 6 7 ack 40 ------- 1 6.0 0.0 36 87
- 1.606648 0 1 tcp 1040 ------- 1 0.0 6.0 49 82
+ 1.606728 1 7 tcp 1040 ------- 1 0.0 6.0 42 73
- 1.606728 1 7 tcp 1040 ------- 1 0.0 6.0 42 73
+ 1.607748 6 7 ack 40 ------- 1 6.0 0.0 32 81
- 1.607748 6 7 ack 40 ------- 1 6.0 0.0 32 81
r 1.608328 0 1 tcp 1040 ------- 1 0.0 6.0 47 78
h 1.608328 1 7 tcp 1040 ------- 1 0.0 6.0 47 78
r 1.609348 7 6 tcp 1040 ------- 1 0.0 6.0 37 67
h 1.609348 6 7 ack 40 ------- 1 6.0 0.0 37 88
- 1.614968 0 1 tcp 1040 ------- 1 0.0 6.0 50 84
+ 1.615048 1 7 tcp 1040 ------- 1 0.0 6.0 43 74
- 1.615048 1 7 tcp 1040 ------- 1 0.0 6.0 43 74
+ 1.616068 6 7 ack 40 ------- 1 6.0 0.0 33 83
- 1.616068 6 7 ack 40 ------- 1 6.0 0.0 33 83
r 1.616648 0 1 tcp 1040 ------- 1 0.0 6.0 48 80
h 1.616648 1 7 tcp 1040 ------- 1 0.0 6.0 48 80
r 1.617668 7 6 tcp 1040 ------- 1 0.0 6.0 38 68
h 1.617668 6 7 ack 40 ------- 1 6.0 0.0 38 89
+ 1.623368 1 7 tcp 1040 ------- 1 0.0 6.0 44 75
- 1.623368 1 7 tcp 1040 ------- 1 0.0 6.0 44 75
+ 1.624388 6 7 ack 40 ------- 1 6.0 0.0 34 85
- 1.624388 6 7 ack 40 ------- 1 6.0 0.0 34 85
r 1.624968 0 1 tcp 1040 ------- 1 0.0 6.0 49 82
h 1.624968 1 7 tcp 1040 ------- 1 0.0 6.0 49 82
r 1.625988 7 6 tcp 1040 ------- 1 0.0 6.0 39 70
h 1.625988 6 7 ack 40 ------- 1 6.0 0.0 39 90
+ 1.631688 1 7 tcp 1040 ------- 1 0.0 6.0 45 76
- 1.631688 1 7 tcp 1040 ------- 1 0.0 6.0 45 76
+ 1.632708 6 7 ack 40 ------- 1 6.0 0.0 35 86
- 1.632708 6 7 ack 40 ------- 1 6.0 0.0 35 86
r 1.633288 0 1 tcp 1040 ------- 1 0.0 6.0 50 84
h 1.633288 1 7 tcp 1040 ------- 1 0.0 6.0 50 84
r 1.634308 7 6 tcp 1040 ------- 1 0.0 6.0 40 71
h 1.634308 6 7 ack 40 ------- 1 6.0 0.0 40 91
+ 1.640008 1 7 tcp 1040 ------- 1 0.0 6.0 46 77
- 1.640008 1 7 tcp 1040 ------- 1 0.0 6.0 46 77
+ 1.641028 6 7 ack 40 ------- 1 6.0 0.0 36 87
- 1.641028 6 7 ack 40 ------- 1 6.0 0.0 36 87
r 1.642628 7 6 tcp 1040 ------- 1 0.0 6.0 41 72
h 1.642628 6 7 ack 40 ------- 1 6.0 0.0 41 92
r 1.642936 7 1 ack 40 ------- 1 6.0 0.0 31 79
+ 1.642936 1 0 ack 40 ------- 1 6.0 0.0 31 79
- 1.642936 1 0 ack 40 ------- 1 6.0 0.0 31 79
+ 1.648328 1 7 tcp 1040 ------- 1 0.0 6.0 47 78
- 1.648328 1 7 tcp 1040 ------- 1 0.0 6.0 47 78
+ 1.649348 6 7 ack 40 ------- 1 6.0 0.0 37 88
- 1.649348 6 7 ack 40 ------- 1 6.0 0.0 37 88
r 1.650948 7 6 tcp 1040 ------- 1 0.0 6.0 42 73
h 1.650948 6 7 ack 40 ------- 1 6.0 0.0 42 93
r 1.651256 7 1 ack 40 ------- 1 6.0 0.0 32 81
+ 1.651256 1 0 ack 40 ------- 1 6.0 0.0 32 81
- 1.651256 1 0 ack 40 ------- 1 6.0 0.0 32 81
r 1.653256 1 0 ack 40 ------- 1 6.0 0.0 31 79
+ 1.653256 0 1 tcp 1040 ------- 1 0.0 6.0 51 94
- 1.653256 0 1 tcp 1040 ------- 1 0.0 6.0 51 94
+ 1.656648 1 7 tcp 1040 ------- 1 0.0 6.0 48 80
- 1.656648 1 7 tcp 1040 ------- 1 0.0 6.0 48 80
+ 1.657668 6 7 ack 40 ------- 1 6.0 0.0 38 89
- 1.657668 6 7 ack 40 ------- 1 6.0 0.0 38 89
r 1.659268 7 6 tcp 1040 ------- 1 0.0 6.0 43 74
h 1.659268 6 7 ack 40 ------- 1 6.0 0.0 43 95
r 1.659576 7 1 ack 40 ------- 1 6.0 0.0 33 83
+ 1.659576 1 0 ack 40 ------- 1 6.0 0.0 33 83
- 1.659576 1 0 ack 40 ------- 1 6.0 0.0 33 83
r 1.661576 1 0 ack 40 ------- 1 6.0 0.0 32 81
+ 1.661576 0 1 tcp 1040 ------- 1 0.0 6.0 52 96
- 1.661576 0 1 tcp 1040 ------- 1 0.0 6.0 52 96
+ 1.664968 1 7 tcp 1040 ------- 1 0.0 6.0 49 82
- 1.664968 1 7 tcp 1040 ------- 1 0.0 6.0 49 82
+ 1.665988 6 7 ack 40 ------- 1 6.0 0.0 39 90
- 1.665988 6 7 ack 40 ------- 1 6.0 0.0 39 90
r 1.667588 7 6 tcp 1040 ------- 1 0.0 6.0 44 75
h 1.667588 6 7 ack 40 ------- 1 6.0 0.0 44 97
r 1.667896 7 1 ack 40 ------- 1 6.0 0.0 34 85
+ 1.667896 1 0 ack 40 ------- 1 6.0 0.0 34 85
- 1.667896 1 0 ack 40 ------- 1 6.0 0.0 34 85
r 1.669896 1 0 ack 40 ------- 1 6.0 0.0 33 83
+ 1.669896 0 1 tcp 1040 ------- 1 0.0 6.0 53 98
- 1.669896 0 1 tcp 1040 ------- 1 0.0 6.0 53 98
r 1.671576 0 1 tcp 1040 ------- 1 0.0 6.0 51 94
h 1.671576 1 7 tcp 1040 ------- 1 0.0 6.0 51 94
+ 1.673288 1 7 tcp 1040 ------- 1 0.0 6.0 50 84
- 1.673288 1 7 tcp 1040 ------- 1 0.0 6.0 50 84
+ 1.674308 6 7 ack 40 ------- 1 6.0 0.0 40 91
- 1.674308 6 7 ack 40 ------- 1 6.0 0.0 40 91
r 1.675908 7 6 tcp 1040 ------- 1 0.0 6.0 45 76
h 1.675908 6 7 ack 40 ------- 1 6.0 0.0 45 99
r 1.676216 7 1 ack 40 ------- 1 6.0 0.0 35 86
+ 1.676216 1 0 ack 40 ------- 1 6.0 0.0 35 86
- 1.676216 1 0 ack 40 ------- 1 6.0 0.0 35 86
r 1.678216 1 0 ack 40 ------- 1 6.0 0.0 34 85
+ 1.678216 0 1 tcp 1040 ------- 1 0.0 6.0 54 100
- 1.678216 0 1 tcp 1040 ------- 1 0.0 6.0 54 100
r 1.679896 0 1 tcp 1040 ------- 1 0.0 6.0 52 96
h 1.679896 1 7 tcp 1040 ------- 1 0.0 6.0 52 96
+ 1.682628 6 7 ack 40 ------- 1 6.0 0.0 41 92
- 1.682628 6 7 ack 40 ------- 1 6.0 0.0 41 92
r 1.684228 7 6 tcp 1040 ------- 1 0.0 6.0 46 77
h 1.684228 6 7 ack 40 ------- 1 6.0 0.0 46 101
r 1.684536 7 1 ack 40 ------- 1 6.0 0.0 36 87
+ 1.684536 1 0 ack 40 ------- 1 6.0 0.0 36 87
- 1.684536 1 0 ack 40 ------- 1 6.0 0.0 36 87
r 1.686536 1 0 ack 40 ------- 1 6.0 0.0 35 86
+ 1.686536 0 1 tcp 1040 ------- 1 0.0 6.0 55 102
- 1.686536 0 1 tcp 1040 ------- 1 0.0 6.0 55 102
r 1.688216 0 1 tcp 1040 ------- 1 0.0 6.0 53 98
h 1.688216 1 7 tcp 1040 ------- 1 0.0 6.0 53 98
+ 1.690948 6 7 ack 40 ------- 1 6.0 0.0 42 93
- 1.690948 6 7 ack 40 ------- 1 6.0 0.0 42 93
r 1.692548 7 6 tcp 1040 ------- 1 0.0 6.0 47 78
h 1.692548 6 7 ack 40 ------- 1 6.0 0.0 47 103
r 1.692856 7 1 ack 40 ------- 1 6.0 0.0 37 88