V -t * -v 1.0a5 -a 0
A -t * -n 1 -p 0 -o 0x7fffffff -c 30 -a 1
A -t * -h 1 -m 1073741823 -s 0
c -t * -i 1 -n Red
n -t * -a 4 -s 4 -S UP -v circle -c black -i black
n -t * -a 0 -s 0 -S UP -v circle -c Red -i Red
n -t * -a 5 -s 5 -S UP -v circle -c black -i black
n -t * -a 1 -s 1 -S UP -v circle -c black -i black
n -t * -a 6 -s 6 -S UP -v circle -c Blue -i Blue
n -t * -a 2 -s 2 -S UP -v circle -c black -i black
n -t * -a 3 -s 3 -S UP -v circle -c black -i black
l -t * -s 0 -d 1 -S UP -r 1000000 -D 0.01 -c black -o right
X -t * -n 7 -r 2Mb -D 40ms -o left
L -t * -s 7 -d 1 -o up
L -t * -s 7 -d 2 -o down
L -t * -s 7 -d 3 -o up
L -t * -s 7 -d 4 -o down
L -t * -s 7 -d 5 -o up
L -t * -s 7 -d 6 -o down
+ -t 0.5 -s 0 -d 1 -p tcp -e 40 -c 1 -i 0 -a 1 -x {0.0 6.0 0 ------- null}
- -t 0.5 -s 0 -d 1 -p tcp -e 40 -c 1 -i 0 -a 1 -x {0.0 6.0 0 ------- null}
h -t 0.5 -s 0 -d 1 -p tcp -e 40 -c 1 -i 0 -a 1 -x {0.0 6.0 -1 ------- null}
r -t 0.51032 -s 0 -d 1 -p tcp -e 40 -c 1 -i 0 -a 1 -x {0.0 6.0 0 ------- null}
h -t 0.51032 -s 1 -d 7 -p tcp -e 40 -c 1 -i 0 -a 1 -x {0.0 6.0 0 ------- null}
+ -t 0.55032 -s 1 -d 7 -p tcp -e 40 -c 1 -i 0 -a 1 -x {0.0 6.0 0 ------- null}
- -t 0.55032 -s 1 -d 7 -p tcp -e 40 -c 1 -i 0 -a 1 -x {0.0 6.0 0 ------- null}
h -t 0.55032 -s 1 -d 7 -p tcp -e 40 -c 1 -i 0 -a 1 -x {0.0 6.0 -1 ------- null}
r -t 0.59058 -s 7 -d 6 -p tcp -e 40 -c 1 -i 0 -a 1 -x {0.0 6.0 0 ------- null}
h -t 0.59058 -s 6 -d 7 -p ack -e 40 -c 1 -i 1 -a 1 -x {6.0 0.0 0 ------- null}
+ -t 0.63058 -s 6 -d 7 -p ack -e 40 -c 1 -i 1 -a 1 -x {6.0 0.0 0 ------- null}
- -t 0.63058 -s 6 -d 7 -p ack -e 40 -c 1 -i 1 -a 1 -x {6.0 0.0 0 ------- null}
h -t 0.63058 -s 6 -d 7 -p ack -e 40 -c 1 -i 1 -a 1 -x {6.0 0.0 -1 ------- null}
r -t 0.67084 -s 7 -d 1 -p ack -e 40 -c 1 -i 1 -a 1 -x {6.0 0.0 0 ------- null}
+ -t 0.67084 -s 1 -d 0 -p ack -e 40 -c 1 -i 1 -a 1 -x {6.0 0.0 0 ------- null}
- -t 0.67084 -s 1 -d 0 -p ack -e 40 -c 1 -i 1 -a 1 -x {6.0 0.0 0 ------- null}
h -t 0.67084 -s 1 -d 0 -p ack -e 40 -c 1 -i 1 -a 1 -x {6.0 0.0 -1 ------- null}
r -t 0.68116 -s 1 -d 0 -p ack -e 40 -c 1 -i 1 -a 1 -x {6.0 0.0 0 ------- null}
+ -t 0.68116 -s 0 -d 1 -p tcp -e 1040 -c 1 -i 2 -a 1 -x {0.0 6.0 1 ------- null}
- -t 0.68116 -s 0 -d 1 -p tcp -e 1040 -c 1 -i 2 -a 1 -x {0.0 6.0 1 ------- null}
h -t 0.68116 -s 0 -d 1 -p tcp -e 1040 -c 1 -i 2 -a 1 -x {0.0 6.0 -1 ------- null}
+ -t 0.68116 -s 0 -d 1 -p tcp -e 1040 -c 1 -i 3 -a 1 -x {0.0 6.0 2 ------- null}
- -t 0.68948 -s 0 -d 1 -p tcp -e 1040 -c 1 -i 3 -a 1 -x {0.0 6.0 2 ------- null}
h -t 0.68948 -s 0 -d 1 -p tcp -e 1040 -c 1 -i 3 -a 1 -x {0.0 6.0 -1 ------- null}
r -t 0.69948 -s 0 -d 1 -p tcp -e 1040 -c 1 -i 2 -a 1 -x {0.0 6.0 1 ------- null}
h -t 0.69948 -s 1 -d 7 -p tcp -e 1040 -c 1 -i 2 -a 1 -x {0.0 6.0 1 ------- null}
r -t 0.7078 -s 0 -d 1 -p tcp -e 1040 -c 1 -i 3 -a 1 -x {0.0 6.0 2 ------- null}
h -t 0.7078 -s 1 -d 7 -p tcp -e 1040 -c 1 -i 3 -a 1 -x {0.0 6.0 2 ------- null}
+ -t 0.73948 -s 1 -d 7 -p tcp -e 1040 -c 1 -i 2 -a 1 -x {0.0 6.0 1 ------- null}
- -t 0.73948 -s 1 -d 7 -p tcp -e 1040 -c 1 -i 2 -a 1 -x {0.0 6.0 1 ------- null}
h -t 0.73948 -s 1 -d 7 -p tcp -e 1040 -c 1 -i 2 -a 1 -x {0.0 6.0 -1 ------- null}
+ -t 0.7478 -s 1 -d 7 -p tcp -e 1040 -c 1 -i 3 -a 1 -x {0.0 6.0 2 ------- null}
- -t 0.7478 -s 1 -d 7 -p tcp -e 1040 -c 1 -i 3 -a 1 -x {0.0 6.0 2 ------- null}
h -t 0.7478 -s 1 -d 7 -p tcp -e 1040 -c 1 -i 3 -a 1 -x {0.0 6.0 -1 ------- null}
r -t 0.7837 -s 7 -d 6 -p tcp -e 1040 -c 1 -i 2 -a 1 -x {0.0 6.0 1 ------- null}
h -t 0.7837 -s 6 -d 7 -p ack -e 40 -c 1 -i 4 -a 1 -x {6.0 0.0 1 ------- null}
r -t 0.79202 -s 7 -d 6 -p tcp -e 1040 -c 1 -i 3 -a 1 -x {0.0 6.0 2 ------- null}
h -t 0.79202 -s 6 -d 7 -p ack -e 40 -c 1 -i 5 -a 1 -x {6.0 0.0 2 ------- null}
+ -t 0.8237 -s 6 -d 7 -p ack -e 40 -c 1 -i 4 -a 1 -x {6.0 0.0 1 ------- null}
- -t 0.8237 -s 6 -d 7 -p ack -e 40 -c 1 -i 4 -a 1 -x {6.0 0.0 1 ------- null}
h -t 0.8237 -s 6 -d 7 -p ack -e 40 -c 1 -i 4 -a 1 -x {6.0 0.0 -1 ------- null}
+ -t 0.83202 -s 6 -d 7 -p ack -e 40 -c 1 -i 5 -a 1 -x {6.0 0.0 2 ------- null}
- -t 0.83202 -s 6 -d 7 -p ack -e 40 -c 1 -i 5 -a 1 -x {6.0 0.0 2 ------- null}
h -t 0.83202 -s 6 -d 7 -p ack -e 40 -c 1 -i 5 -a 1 -x {6.0 0.0 -1 ------- null}
r -t 0.86396 -s 7 -d 1 -p ack -e 40 -c 1 -i 4 -a 1 -x {6.0 0.0 1 ------- null}
+ -t 0.86396 -s 1 -d 0 -p ack -e 40 -c 1 -i 4 -a 1 -x {6.0 0.0 1 ------- null}
- -t 0.86396 -s 1 -d 0 -p ack -e 40 -c 1 -i 4 -a 1 -x {6.0 0.0 1 ------- null}
h -t 0.86396 -s 1 -d 0 -p ack -e 40 -c 1 -i 4 -a 1 -x {6.0 0.0 -1 ------- null}
r -t 0.87228 -s 7 -d 1 -p ack -e 40 -c 1 -i 5 -a 1 -x {6.0 0.0 2 ------- null}
+ -t 0.87228 -s 1 -d 0 -p ack -e 40 -c 1 -i 5 -a 1 -x {6.0 0.0 2 ------- null}
- -t 0.87228 -s 1 -d 0 -p ack -e 40 -c 1 -i 5 -a 1 -x {6.0 0.0 2 ------- null}
h -t 0.87228 -s 1 -d 0 -p ack -e 40 -c 1 -i 5 -a 1 -x {6.0 0.0 -1 ------- null}
r -t 0.87428 -s 1 -d 0 -p ack -e 40 -c 1 -i 4 -a 1 -x {6.0 0.0 1 ------- null}
+ -t 0.87428 -s 0 -d 1 -p tcp -e 1040 -c 1 -i 6 -a 1 -x {0.0 6.0 3 ------- null}
- -t 0.87428 -s 0 -d 1 -p tcp -e 1040 -c 1 -i 6 -a 1 -x {0.0 6.0 3 ------- null}
h -t 0.87428 -s 0 -d 1 -p tcp -e 1040 -c 1 -i 6 -a 1 -x {0.0 6.0 -1 ------- null}
+ -t 0.87428 -s 0 -d 1 -p tcp -e 1040 -c 1 -i 7 -a 1 -x {0.0 6.0 4 ------- null}
r -t 0.8826 -s 1 -d 0 -p ack -e 40 -c 1 -i 5 -a 1 -x {6.0 0.0 2 ------- null}
+ -t 0.8826 -s 0 -d 1 -p tcp -e 1040 -c 1 -i 8 -a 1 -x {0.0 6.0 5 ------- null}
+ -t 0.8826 -s 0 -d 1 -p tcp -e 1040 -c 1 -i 9 -a 1 -x {0.0 6.0 6 ------- null}
- -t 0.8826 -s 0 -d 1 -p tcp -e 1040 -c 1 -i 7 -a 1 -x {0.0 6.0 4 ------- null}
h -t 0.8826 -s 0 -d 1 -p tcp -e 1040 -c 1 -i 7 -a 1 -x {0.0 6.0 -1 ------- null}
- -t 0.89092 -s 0 -d 1 -p tcp -e 1040 -c 1 -i 8 -a 1 -x {0.0 6.0 5 ------- null}
h -t 0.89092 -s 0 -d 1 -p tcp -e 1040 -c 1 -i 8 -a 1 -x {0.0 6.0 -1 ------- null}
r -t 0.8926 -s 0 -d 1 -p tcp -e 1040 -c 1 -i 6 -a 1 -x {0.0 6.0 3 ------- null}
h -t 0.8926 -s 1 -d 7 -p tcp -e 1040 -c 1 -i 6 -a 1 -x {0.0 6.0 3 ------- null}
- -t 0.89924 -s 0 -d 1 -p tcp -e 1040 -c 1 -i 9 -a 1 -x {0.0 6.0 6 ------- null}
h -t 0.89924 -s 0 -d 1 -p tcp -e 1040 -c 1 -i 9 -a 1 -x {0.0 6.0 -1 ------- null}
r -t 0.90092 -s 0 -d 1 -p tcp -e 1040 -c 1 -i 7 -a 1 -x {0.0 6.0 4 ------- null}
h -t 0.90092 -s 1 -d 7 -p tcp -e 1040 -c 1 -i 7 -a 1 -x {0.0 6.0 4 ------- null}
r -t 0.90924 -s 0 -d 1 -p tcp -e 1040 -c 1 -i 8 -a 1 -x {0.0 6.0 5 ------- null}
h -t 0.90924 -s 1 -d 7 -p tcp -e 1040 -c 1 -i 8 -a 1 -x {0.0 6.0 5 ------- null}
r -t 0.91756 -s 0 -d 1 -p tcp -e 1040 -c 1 -i 9 -a 1 -x {0.0 6.0 6 ------- null}
h -t 0.91756 -s 1 -d 7 -p tcp -e 1040 -c 1 -i 9 -a 1 -x {0.0 6.0 6 ------- null}
+ -t 0.9326 -s 1 -d 7 -p tcp -e 1040 -c 1 -i 6 -a 1 -x {0.0 6.0 3 ------- null}
- -t 0.9326 -s 1 -d 7 -p tcp -e 1040 -c 1 -i 6 -a 1 -x {0.0 6.0 3 ------- null}
h -t 0.9326 -s 1 -d 7 -p tcp -e 1040 -c 1 -i 6 -a 1 -x {0.0 6.0 -1 ------- null}
+ -t 0.94092 -s 1 -d 7 -p tcp -e 1040 -c 1 -i 7 -a 1 -x {0.0 6.0 4 ------- null}
- -t 0.94092 -s 1 -d 7 -p tcp -e 1040 -c 1 -i 7 -a 1 -x {0.0 6.0 4 ------- null}
h -t 0.94092 -s 1 -d 7 -p tcp -e 1040 -c 1 -i 7 -a 1 -x {0.0 6.0 -1 ------- null}
+ -t 0.94924 -s 1 -d 7 -p tcp -e 1040 -c 1 -i 8 -a 1 -x {0.0 6.0 5 ------- null}
- -t 0.94924 -s 1 -d 7 -p tcp -e 1040 -c 1 -i 8 -a 1 -x {0.0 6.0 5 ------- null}
h -t 0.94924 -s 1 -d 7 -p tcp -e 1040 -c 1 -i 8 -a 1 -x {0.0 6.0 -1 ------- null}
+ -t 0.95756 -s 1 -d 7 -p tcp -e 1040 -c 1 -i 9 -a 1 -x {0.0 6.0 6 ------- null}
- -t 0.95756 -s 1 -d 7 -p tcp -e 1040 -c 1 -i 9 -a 1 -x {0.0 6.0 6 ------- null}
h -t 0.95756 -s 1 -d 7 -p tcp -e 1040 -c 1 -i 9 -a 1 -x {0.0 6.0 -1 ------- null}
r -t 0.97682 -s 7 -d 6 -p tcp -e 1040 -c 1 -i 6 -a 1 -x {0.0 6.0 3 ------- null}
h -t 0.97682 -s 6 -d 7 -p ack -e 40 -c 1 -i 10 -a 1 -x {6.0 0.0 3 ------- null}
r -t 0.98514 -s 7 -d 6 -p tcp -e 1040 -c 1 -i 7 -a 1 -x {0.0 6.0 4 ------- null}
h -t 0.98514 -s 6 -d 7 -p ack -e 40 -c 1 -i 11 -a 1 -x {6.0 0.0 4 ------- null}
r -t 0.99346 -s 7 -d 6 -p tcp -e 1040 -c 1 -i 8 -a 1 -x {0.0 6.0 5 ------- null}
h -t 0.99346 -s 6 -d 7 -p ack -e 40 -c 1 -i 12 -a 1 -x {6.0 0.0 5 ------- null}
r -t 1.00178 -s 7 -d 6 -p tcp -e 1040 -c 1 -i 9 -a 1 -x {0.0 6.0 6 ------- null}
h -t 1.00178 -s 6 -d 7 -p ack -e 40 -c 1 -i 13 -a 1 -x {6.0 0.0 6 ------- null}
+ -t 1.01682 -s 6 -d 7 -p ack -e 40 -c 1 -i 10 -a 1 -x {6.0 0.0 3 ------- null}
- -t 1.01682 -s 6 -d 7 -p ack -e 40 -c 1 -i 10 -a 1 -x {6.0 0.0 3 ------- null}
h -t 1.01682 -s 6 -d 7 -p ack -e 40 -c 1 -i 10 -a 1 -x {6.0 0.0 -1 ------- null}
+ -t 1.02514 -s 6 -d 7 -p ack -e 40 -c 1 -i 11 -a 1 -x {6.0 0.0 4 ------- null}
- -t 1.02514 -s 6 -d 7 -p ack -e 40 -c 1 -i 11 -a 1 -x {6.0 0.0 4 ------- null}
h -t 1.02514 -s 6 -d 7 -p ack -e 40 -c 1 -i 11 -a 1 -x {6.0 0.0 -1 ------- null}
+ -t 1.03346 -s 6 -d 7 -p ack -e 40 -c 1 -i 12 -a 1 -x {6.0 0.0 5 ------- null}
- -t 1.03346 -s 6 -d 7 -p ack -e 40 -c 1 -i 12 -a 1 -x {6.0 0.0 5 ------- null}
h -t 1.03346 -s 6 -d 7 -p ack -e 40 -c 1 -i 12 -a 1 -x {6.0 0.0 -1 ------- null}
+ -t 1.04178 -s 6 -d 7 -p ack -e 40 -c 1 -i 13 -a 1 -x {6.0 0.0 6 ------- null}
- -t 1.04178 -s 6 -d 7 -p ack -e 40 -c 1 -i 13 -a 1 -x {6.0 0.0 6 ------- null}
h -t 1.04178 -s 6 -d 7 -p ack -e 40 -c 1 -i 13 -a 1 -x {6.0 0.0 -1 ------- null}
r -t 1.05708 -s 7 -d 1 -p ack -e 40 -c 1 -i 10 -a 1 -x {6.0 0.0 3 ------- null}
+ -t 1.05708 -s 1 -d 0 -p ack -e 40 -c 1 -i 10 -a 1 -x {6.0 0.0 3 ------- null}
- -t 1.05708 -s 1 -d 0 -p ack -e 40 -c 1 -i 10 -a 1 -x {6.0 0.0 3 ------- null}
h -t 1.05708 -s 1 -d 0 -p ack -e 40 -c 1 -i 10 -a 1 -x {6.0 0.0 -1 ------- null}
r -t 1.0654 -s 7 -d 1 -p ack -e 40 -c 1 -i 11 -a 1 -x {6.0 0.0 4 ------- null}
+ -t 1.0654 -s 1 -d 0 -p ack -e 40 -c 1 -i 11 -a 1 -x {6.0 0.0 4 ------- null}
- -t 1.0654 -s 1 -d 0 -p ack -e 40 -c 1 -i 11 -a 1 -x {6.0 0.0 4 ------- null}
h -t 1.0654 -s 1 -d 0 -p ack -e 40 -c 1 -i 11 -a 1 -x {6.0 0.0 -1 ------- null}
r -t 1.0674 -s 1 -d 0 -p ack -e 40 -c 1 -i 10 -a 1 -x {6.0 0.0 3 ------- null}
+ -t 1.0674 -s 0 -d 1 -p tcp -e 1040 -c 1 -i 14 -a 1 -x {0.0 6.0 7 ------- null}
- -t 1.0674 -s 0 -d 1 -p tcp -e 1040 -c 1 -i 14 -a 1 -x {0.0 6.0 7 ------- null}
h -t 1.0674 -s 0 -d 1 -p tcp -e 1040 -c 1 -i 14 -a 1 -x {0.0 6.0 -1 ------- null}
+ -t 1.0674 -s 0 -d 1 -p tcp -e 1040 -c 1 -i 15 -a 1 -x {0.0 6.0 8 ------- null}
r -t 1.07372 -s 7 -d 1 -p ack -e 40 -c 1 -i 12 -a 1 -x {6.0 0.0 5 ------- null}
+ -t 1.07372 -s 1 -d 0 -p ack -e 40 -c 1 -i 12 -a 1 -x {6.0 0.0 5 ------- null}
- -t 1.07372 -s 1 -d 0 -p ack -e 40 -c 1 -i 12 -a 1 -x {6.0 0.0 5 ------- null}
h -t 1.07372 -s 1 -d 0 -p ack -e 40 -c 1 -i 12 -a 1 -x {6.0 0.0 -1 ------- null}
r -t 1.07572 -s 1 -d 0 -p ack -e 40 -c 1 -i 11 -a 1 -x {6.0 0.0 4 ------- null}
+ -t 1.07572 -s 0 -d 1 -p tcp -e 1040 -c 1 -i 16 -a 1 -x {0.0 6.0 9 ------- null}
+ -t 1.07572 -s 0 -d 1 -p tcp -e 1040 -c 1 -i 17 -a 1 -x {0.0 6.0 10 ------- null}
- -t 1.07572 -s 0 -d 1 -p tcp -e 1040 -c 1 -i 15 -a 1 -x {0.0 6.0 8 ------- null}
h -t 1.07572 -s 0 -d 1 -p tcp -e 1040 -c 1 -i 15 -a 1 -x {0.0 6.0 -1 ------- null}
r -t 1.08204 -s 7 -d 1 -p ack -e 40 -c 1 -i 13 -a 1 -x {6.0 0.0 6 ------- null}
+ -t 1.08204 -s 1 -d 0 -p ack -e 40 -c 1 -i 13 -a 1 -x {6.0 0.0 6 ------- null}
- -t 1.08204 -s 1 -d 0 -p ack -e 40 -c 1 -i 13 -a 1 -x {6.0 0.0 6 ------- null}
h -t 1.08204 -s 1 -d 0 -p ack -e 40 -c 1 -i 13 -a 1 -x {6.0 0.0 -1 ------- null}
r -t 1.08404 -s 1 -d 0 -p ack -e 40 -c 1 -i 12 -a 1 -x {6.0 0.0 5 ------- null}
+ -t 1.08404 -s 0 -d 1 -p tcp -e 1040 -c 1 -i 18 -a 1 -x {0.0 6.0 11 ------- null}
+ -t 1.08404 -s 0 -d 1 -p tcp -e 1040 -c 1 -i 19 -a 1 -x {0.0 6.0 12 ------- null}
- -t 1.08404 -s 0 -d 1 -p tcp -e 1040 -c 1 -i 16 -a 1 -x {0.0 6.0 9 ------- null}
h -t 1.08404 -s 0 -d 1 -p tcp -e 1040 -c 1 -i 16 -a 1 -x {0.0 6.0 -1 ------- null}
r -t 1.08572 -s 0 -d 1 -p tcp -e 1040 -c 1 -i 14 -a 1 -x {0.0 6.0 7 ------- null}
h -t 1.08572 -s 1 -d 7 -p tcp -e 1040 -c 1 -i 14 -a 1 -x {0.0 6.0 7 ------- null}
r -t 1.09236 -s 1 -d 0 -p ack -e 40 -c 1 -i 13 -a 1 -x {6.0 0.0 6 ------- null}
+ -t 1.09236 -s 0 -d 1 -p tcp -e 1040 -c 1 -i 20 -a 1 -x {0.0 6.0 13 ------- null}
+ -t 1.09236 -s 0 -d 1 -p tcp -e 1040 -c 1 -i 21 -a 1 -x {0.0 6.0 14 ------- null}
- -t 1.09236 -s 0 -d 1 -p tcp -e 1040 -c 1 -i 17 -a 1 -x {0.0 6.0 10 ------- null}
h -t 1.09236 -s 0 -d 1 -p tcp -e 1040 -c 1 -i 17 -a 1 -x {0.0 6.0 -1 ------- null}
r -t 1.09404 -s 0 -d 1 -p tcp -e 1040 -c 1 -i 15 -a 1 -x {0.0 6.0 8 ------- null}
h -t 1.09404 -s 1 -d 7 -p tcp -e 1040 -c 1 -i 15 -a 1 -x {0.0 6.0 8 ------- null}
- -t 1.10068 -s 0 -d 1 -p tcp -e 1040 -c 1 -i 18 -a 1 -x {0.0 6.0 11 ------- null}
h -t 1.10068 -s 0 -d 1 -p tcp -e 1040 -c 1 -i 18 -a 1 -x {0.0 6.0 -1 ------- null}
r -t 1.10236 -s 0 -d 1 -p tcp -e 1040 -c 1 -i 16 -a 1 -x {0.0 6.0 9 ------- null}
h -t 1.10236 -s 1 -d 7 -p tcp -e 1040 -c 1 -i 16 -a 1 -x {0.0 6.0 9 ------- null}
- -t 1.109 -s 0 -d 1 -p tcp -e 1040 -c 1 -i 19 -a 1 -x {0.0 6.0 12 ------- null}
h -t 1.109 -s 0 -d 1 -p tcp -e 1040 -c 1 -i 19 -a 1 -x {0.0 6.0 -1 ------- null}
r -t 1.11068 -s 0 -d 1 -p tcp -e 1040 -c 1 -i 17 -a 1 -x {0.0 6.0 10 ------- null}
h -t 1.11068 -s 1 -d 7 -p tcp -e 1040 -c 1 -i 17 -a 1 -x {0.0 6.0 10 ------- null}
- -t 1.11732 -s 0 -d 1 -p tcp -e 1040 -c 1 -i 20 -a 1 -x {0.0 6.0 13 ------- null}
h -t 1.11732 -s 0 -d 1 -p tcp -e 1040 -c 1 -i 20 -a 1 -x {0.0 6.0 -1 ------- null}
r -t 1.119 -s 0 -d 1 -p tcp -e 1040 -c 1 -i 18 -a 1 -x {0.0 6.0 11 ------- null}
h -t 1.119 -s 1 -d 7 -p tcp -e 1040 -c 1 -i 18 -a 1 -x {0.0 6.0 11 ------- null}
- -t 1.12564 -s 0 -d 1 -p tcp -e 1040 -c 1 -i 21 -a 1 -x {0.0 6.0 14 ------- null}
h -t 1.12564 -s 0 -d 1 -p tcp -e 1040 -c 1 -i 21 -a 1 -x {0.0 6.0 -1 ------- null}
+ -t 1.12572 -s 1 -d 7 -p tcp -e 1040 -c 1 -i 14 -a 1 -x {0.0 6.0 7 ------- null}
- -t 1.12572 -s 1 -d 7 -p tcp -e 1040 -c 1 -i 14 -a 1 -x {0.0 6.0 7 ------- null}
h -t 1.12572 -s 1 -d 7 -p tcp -e 1040 -c 1 -i 14 -a 1 -x {0.0 6.0 -1 ------- null}
r -t 1.12732 -s 0 -d 1 -p tcp -e 1040 -c 1 -i 19 -a 1 -x {0.0 6.0 12 ------- null}
h -t 1.12732 -s 1 -d 7 -p tcp -e 1040 -c 1 -i 19 -a 1 -x {0.0 6.0 12 ------- null}
+ -t 1.13404 -s 1 -d 7 -p tcp -e 1040 -c 1 -i 15 -a 1 -x {0.0 6.0 8 ------- null}
- -t 1.13404 -s 1 -d 7 -p tcp -e 1040 -c 1 -i 15 -a 1 -x {0.0 6.0 8 ------- null}
h -t 1.13404 -s 1 -d 7 -p tcp -e 1040 -c 1 -i 15 -a 1 -x {0.0 6.0 -1 ------- null}
r -t 1.13564 -s 0 -d 1 -p tcp -e 1040 -c 1 -i 20 -a 1 -x {0.0 6.0 13 ------- null}
h -t 1.13564 -s 1 -d 7 -p tcp -e 1040 -c 1 -i 20 -a 1 -x {0.0 6.0 13 ------- null}
+ -t 1.14236 -s 1 -d 7 -p tcp -e 1040 -c 1 -i 16 -a 1 -x {0.0 6.0 9 ------- null}
- -t 1.14236 -s 1 -d 7 -p tcp -e 1040 -c 1 -i 16 -a 1 -x {0.0 6.0 9 ------- null}
h -t 1.14236 -s 1 -d 7 -p tcp -e 1040 -c 1 -i 16 -a 1 -x {0.0 6.0 -1 ------- null}
r -t 1.14396 -s 0 -d 1 -p tcp -e 1040 -c 1 -i 21 -a 1 -x {0.0 6.0 14 ------- null}
h -t 1.14396 -s 1 -d 7 -p tcp -e 1040 -c 1 -i 21 -a 1 -x {0.0 6.0 14 ------- null}
+ -t 1.15068 -s 1 -d 7 -p tcp -e 1040 -c 1 -i 17 -a 1 -x {0.0 6.0 10 ------- null}
- -t 1.15068 -s 1 -d 7 -p tcp -e 1040 -c 1 -i 17 -a 1 -x {0.0 6.0 10 ------- null}
h -t 1.15068 -s 1 -d 7 -p tcp -e 1040 -c 1 -i 17 -a 1 -x {0.0 6.0 -1 ------- null}
+ -t 1.159 -s 1 -d 7 -p tcp -e 1040 -c 1 -i 18 -a 1 -x {0.0 6.0 11 ------- null}
- -t 1.159 -s 1 -d 7 -p tcp -e 1040 -c 1 -i 18 -a 1 -x {0.0 6.0 11 ------- null}
h -t 1.159 -s 1 -d 7 -p tcp -e 1040 -c 1 -i 18 -a 1 -x {0.0 6.0 -1 ------- null}
+ -t 1.16732 -s 1 -d 7 -p tcp -e 1040 -c 1 -i 19 -a 1 -x {0.0 6.0 12 ------- null}
- -t 1.16732 -s 1 -d 7 -p tcp -e 1040 -c 1 -i 19 -a 1 -x {0.0 6.0 12 ------- null}
h -t 1.16732 -s 1 -d 7 -p tcp -e 1040 -c 1 -i 19 -a 1 -x {0.0 6.0 -1 ------- null}
r -t 1.16994 -s 7 -d 6 -p tcp -e 1040 -c 1 -i 14 -a 1 -x {0.0 6.0 7 ------- null}
h -t 1.16994 -s 6 -d 7 -p ack -e 40 -c 1 -i 22 -a 1 -x {6.0 0.0 7 ------- null}
+ -t 1.17564 -s 1 -d 7 -p tcp -e 1040 -c 1 -i 20 -a 1 -x {0.0 6.0 13 ------- null}
- -t 1.17564 -s 1 -d 7 -p tcp -e 1040 -c 1 -i 20 -a 1 -x {0.0 6.0 13 ------- null}
h -t 1.17564 -s 1 -d 7 -p tcp -e 1040 -c 1 -i 20 -a 1 -x {0.0 6.0 -1 ------- null}
r -t 1.17826 -s 7 -d 6 -p tcp -e 1040 -c 1 -i 15 -a 1 -x {0.0 6.0 8 ------- null}
h -t 1.17826 -s 6 -d 7 -p ack -e 40 -c 1 -i 23 -a 1 -x {6.0 0.0 8 ------- null}
+ -t 1.18396 -s 1 -d 7 -p tcp -e 1040 -c 1 -i 21 -a 1 -x {0.0 6.0 14 ------- null}
- -t 1.18396 -s 1 -d 7 -p tcp -e 1040 -c 1 -i 21 -a 1 -x {0.0 6.0 14 ------- null}
h -t 1.18396 -s 1 -d 7 -p tcp -e 1040 -c 1 -i 21 -a 1 -x {0.0 6.0 -1 ------- null}
r -t 1.18658 -s 7 -d 6 -p tcp -e 1040 -c 1 -i 16 -a 1 -x {0.0 6.0 9 ------- null}
h -t 1.18658 -s 6 -d 7 -p ack -e 40 -c 1 -i 24 -a 1 -x {6.0 0.0 9 ------- null}
r -t 1.1949 -s 7 -d 6 -p tcp -e 1040 -c 1 -i 17 -a 1 -x {0.0 6.0 10 ------- null}
h -t 1.1949 -s 6 -d 7 -p ack -e 40 -c 1 -i 25 -a 1 -x {6.0 0.0 10 ------- null}
r -t 1.20322 -s 7 -d 6 -p tcp -e 1040 -c 1 -i 18 -a 1 -x {0.0 6.0 11 ------- null}
h -t 1.20322 -s 6 -d 7 -p ack -e 40 -c 1 -i 26 -a 1 -x {6.0 0.0 11 ------- null}
+ -t 1.20994 -s 6 -d 7 -p ack -e 40 -c 1 -i 22 -a 1 -x {6.0 0.0 7 ------- null}
- -t 1.20994 -s 6 -d 7 -p ack -e 40 -c 1 -i 22 -a 1 -x {6.0 0.0 7 ------- null}
h -t 1.20994 -s 6 -d 7 -p ack -e 40 -c 1 -i 22 -a 1 -x {6.0 0.0 -1 ------- null}
r -t 1.21154 -s 7 -d 6 -p tcp -e 1040 -c 1 -i 19 -a 1 -x {0.0 6.0 12 ------- null}
h -t 1.21154 -s 6 -d 7 -p ack -e 40 -c 1 -i 27 -a 1 -x {6.0 0.0 12 ------- null}
+ -t 1.21826 -s 6 -d 7 -p ack -e 40 -c 1 -i 23 -a 1 -x {6.0 0.0 8 ------- null}
- -t 1.21826 -s 6 -d 7 -p ack -e 40 -c 1 -i 23 -a 1 -x {6.0 0.0 8 ------- null}
h -t 1.21826 -s 6 -d 7 -p ack -e 40 -c 1 -i 23 -a 1 -x {6.0 0.0 -1 ------- null}
r -t 1.21986 -s 7 -d 6 -p tcp -e 1040 -c 1 -i 20 -a 1 -x {0.0 6.0 13 ------- null}
h -t 1.21986 -s 6 -d 7 -p ack -e 40 -c 1 -i 28 -a 1 -x {6.0 0.0 13 ------- null}
+ -t 1.22658 -s 6 -d 7 -p ack -e 40 -c 1 -i 24 -a 1 -x {6.0 0.0 9 ------- null}
- -t 1.22658 -s 6 -d 7 -p ack -e 40 -c 1 -i 24 -a 1 -x {6.0 0.0 9 ------- null}
h -t 1.22658 -s 6 -d 7 -p ack -e 40 -c 1 -i 24 -a 1 -x {6.0 0.0 -1 ------- null}
r -t 1.22818 -s 7 -d 6 -p tcp -e 1040 -c 1 -i 21 -a 1 -x {0.0 6.0 14 ------- null}
h -t 1.22818 -s 6 -d 7 -p ack -e 40 -c 1 -i 29 -a 1 -x {6.0 0.0 14 ------- null}
+ -t 1.2349 -s 6 -d 7 -p ack -e 40 -c 1 -i 25 -a 1 -x {6.0 0.0 10 ------- null}
- -t 1.2349 -s 6 -d 7 -p ack -e 40 -c 1 -i 25 -a 1 -x {6.0 0.0 10 ------- null}
h -t 1.2349 -s 6 -d 7 -p ack -e 40 -c 1 -i 25 -a 1 -x {6.0 0.0 -1 ------- null}
+ -t 1.24322 -s 6 -d 7 -p ack -e 40 -c 1 -i 26 -a 1 -x {6.0 0.0 11 ------- null}
- -t 1.24322 -s 6 -d 7 -p ack -e 40 -c 1 -i 26 -a 1 -x {6.0 0.0 11 ------- null}
h -t 1.24322 -s 6 -d 7 -p ack -e 40 -c 1 -i 26 -a 1 -x {6.0 0.0 -1 ------- null}
r -t 1.2502 -s 7 -d 1 -p ack -e 40 -c 1 -i 22 -a 1 -x {6.0 0.0 7 ------- null}
+ -t 1.2502 -s 1 -d 0 -p ack -e 40 -c 1 -i 22 -a 1 -x {6.0 0.0 7 ------- null}
- -t 1.2502 -s 1 -d 0 -p ack -e 40 -c 1 -i 22 -a 1 -x {6.0 0.0 7 ------- null}
h -t 1.2502 -s 1 -d 0 -p ack -e 40 -c 1 -i 22 -a 1 -x {6.0 0.0 -1 ------- null}
+ -t 1.25154 -s 6 -d 7 -p ack -e 40 -c 1 -i 27 -a 1 -x {6.0 0.0 12 ------- null}
- -t 1.25154 -s 6 -d 7 -p ack -e 40 -c 1 -i 27 -a 1 -x {6.0 0.0 12 ------- null}
h -t 1.25154 -s 6 -d 7 -p ack -e 40 -c 1 -i 27 -a 1 -x {6.0 0.0 -1 ------- null}
r -t 1.25852 -s 7 -d 1 -p ack -e 40 -c 1 -i 23 -a 1 -x {6.0 0.0 8 ------- null}
+ -t 1.25852 -s 1 -d 0 -p ack -e 40 -c 1 -i 23 -a 1 -x {6.0 0.0 8 ------- null}
- -t 1.25852 -s 1 -d 0 -p ack -e 40 -c 1 -i 23 -a 1 -x {6.0 0.0 8 ------- null}
h -t 1.25852 -s 1 -d 0 -p ack -e 40 -c 1 -i 23 -a 1 -x {6.0 0.0 -1 ------- null}
+ -t 1.25986 -s 6 -d 7 -p ack -e 40 -c 1 -i 28 -a 1 -x {6.0 0.0 13 ------- null}
- -t 1.25986 -s 6 -d 7 -p ack -e 40 -c 1 -i 28 -a 1 -x {6.0 0.0 13 ------- null}
h -t 1.25986 -s 6 -d 7 -p ack -e 40 -c 1 -i 28 -a 1 -x {6.0 0.0 -1 ------- null}
r -t 1.26052 -s 1 -d 0 -p ack -e 40 -c 1 -i 22 -a 1 -x {6.0 0.0 7 ------- null}
+ -t 1.26052 -s 0 -d 1 -p tcp -e 1040 -c 1 -i 30 -a 1 -x {0.0 6.0 15 ------- null}
- -t 1.26052 -s 0 -d 1 -p tcp -e 1040 -c 1 -i 30 -a 1 -x {0.0 6.0 15 ------- null}
h -t 1.26052 -s 0 -d 1 -p tcp -e 1040 -c 1 -i 30 -a 1 -x {0.0 6.0 -1 ------- null}
+ -t 1.26052 -s 0 -d 1 -p tcp -e 1040 -c 1 -i 31 -a 1 -x {0.0 6.0 16 ------- null}
r -t 1.26684 -s 7 -d 1 -p ack -e 40 -c 1 -i 24 -a 1 -x {6.0 0.0 9 ------- null}
+ -t 1.26684 -s 1 -d 0 -p ack -e 40 -c 1 -i 24 -a 1 -x {6.0 0.0 9 ------- null}
- -t 1.26684 -s 1 -d 0 -p ack -e 40 -c 1 -i 24 -a 1 -x {6.0 0.0 9 ------- null}
h -t 1.26684 -s 1 -d 0 -p ack -e 40 -c 1 -i 24 -a 1 -x {6.0 0.0 -1 ------- null}
+ -t 1.26818 -s 6 -d 7 -p ack -e 40 -c 1 -i 29 -a 1 -x {6.0 0.0 14 ------- null}
- -t 1.26818 -s 6 -d 7 -p ack -e 40 -c 1 -i 29 -a 1 -x {6.0 0.0 14 ------- null}
h -t 1.26818 -s 6 -d 7 -p ack -e 40 -c 1 -i 29 -a 1 -x {6.0 0.0 -1 ------- null}
r -t 1.26884 -s 1 -d 0 -p ack -e 40 -c 1 -i 23 -a 1 -x {6.0 0.0 8 ------- null}
+ -t 1.26884 -s 0 -d 1 -p tcp -e 1040 -c 1 -i 32 -a 1 -x {0.0 6.0 17 ------- null}
+ -t 1.26884 -s 0 -d 1 -p tcp -e 1040 -c 1 -i 33 -a 1 -x {0.0 6.0 18 ------- null}
- -t 1.26884 -s 0 -d 1 -p tcp -e 1040 -c 1 -i 31 -a 1 -x {0.0 6.0 16 ------- null}
h -t 1.26884 -s 0 -d 1 -p tcp -e 1040 -c 1 -i 31 -a 1 -x {0.0 6.0 -1 ------- null}
r -t 1.27516 -s 7 -d 1 -p ack -e 40 -c 1 -i 25 -a 1 -x {6.0 0.0 10 ------- null}
+ -t 1.27516 -s 1 -d 0 -p ack -e 40 -c 1 -i 25 -a 1 -x {6.0 0.0 10 ------- null}
- -t 1.27516 -s 1 -d 0 -p ack -e 40 -c 1 -i 25 -a 1 -x {6.0 0.0 10 ------- null}
h -t 1.27516 -s 1 -d 0 -p ack -e 40 -c 1 -i 25 -a 1 -x {6.0 0.0 -1 ------- null}
r -t 1.27716 -s 1 -d 0 -p ack -e 40 -c 1 -i 24 -a 1 -x {6.0 0.0 9 ------- null}
+ -t 1.27716 -s 0 -d 1 -p tcp -e 1040 -c 1 -i 34 -a 1 -x {0.0 6.0 19 ------- null}
+ -t 1.27716 -s 0 -d 1 -p tcp -e 1040 -c 1 -i 35 -a 1 -x {0.0 6.0 20 ------- null}
- -t 1.27716 -s 0 -d 1 -p tcp -e 1040 -c 1 -i 32 -a 1 -x {0.0 6.0 17 ------- null}
h -t 1.27716 -s 0 -d 1 -p tcp -e 1040 -c 1 -i 32 -a 1 -x {0.0 6.0 -1 ------- null}
r -t 1.27884 -s 0 -d 1 -p tcp -e 1040 -c 1 -i 30 -a 1 -x {0.0 6.0 15 ------- null}
h -t 1.27884 -s 1 -d 7 -p tcp -e 1040 -c 1 -i 30 -a 1 -x {0.0 6.0 15 ------- null}
r -t 1.28348 -s 7 -d 1 -p ack -e 40 -c 1 -i 26 -a 1 -x {6.0 0.0 11 ------- null}
+ -t 1.28348 -s 1 -d 0 -p ack -e 40 -c 1 -i 26 -a 1 -x {6.0 0.0 11 ------- null}
- -t 1.28348 -s 1 -d 0 -p ack -e 40 -c 1 -i 26 -a 1 -x {6.0 0.0 11 ------- null}
h -t 1.28348 -s 1 -d 0 -p ack -e 40 -c 1 -i 26 -a 1 -x {6.0 0.0 -1 ------- null}
r -t 1.28548 -s 1 -d 0 -p ack -e 40 -c 1 -i 25 -a 1 -x {6.0 0.0 10 ------- null}
+ -t 1.28548 -s 0 -d 1 -p tcp -e 1040 -c 1 -i 36 -a 1 -x {0.0 6.0 21 ------- null}
+ -t 1.28548 -s 0 -d 1 -p tcp -e 1040 -c 1 -i 37 -a 1 -x {0.0 6.0 22 ------- null}
- -t 1.28548 -s 0 -d 1 -p tcp -e 1040 -c 1 -i 33 -a 1 -x {0.0 6.0 18 ------- null}
h -t 1.28548 -s 0 -d 1 -p tcp -e 1040 -c 1 -i 33 -a 1 -x {0.0 6.0 -1 ------- null}
r -t 1.28716 -s 0 -d 1 -p tcp -e 1040 -c 1 -i 31 -a 1 -x {0.0 6.0 16 ------- null}
h -t 1.28716 -s 1 -d 7 -p tcp -e 1040 -c 1 -i 31 -a 1 -x {0.0 6.0 16 ------- null}
r -t 1.2918 -s 7 -d 1 -p ack -e 40 -c 1 -i 27 -a 1 -x {6.0 0.0 12 ------- null}
+ -t 1.2918 -s 1 -d 0 -p ack -e 40 -c 1 -i 27 -a 1 -x {6.0 0.0 12 ------- null}
- -t 1.2918 -s 1 -d 0 -p ack -e 40 -c 1 -i 27 -a 1 -x {6.0 0.0 12 ------- null}
h -t 1.2918 -s 1 -d 0 -p ack -e 40 -c 1 -i 27 -a 1 -x {6.0 0.0 -1 ------- null}
r -t 1.2938 -s 1 -d 0 -p ack -e 40 -c 1 -i 26 -a 1 -x {6.0 0.0 11 ------- null}
+ -t 1.2938 -s 0 -d 1 -p tcp -e 1040 -c 1 -i 38 -a 1 -x {0.0 6.0 23 ------- null}
+ -t 1.2938 -s 0 -d 1 -p tcp -e 1040 -c 1 -i 39 -a 1 -x {0.0 6.0 24 ------- null}
- -t 1.2938 -s 0 -d 1 -p tcp -e 1040 -c 1 -i 34 -a 1 -x {0.0 6.0 19 ------- null}
h -t 1.2938 -s 0 -d 1 -p tcp -e 1040 -c 1 -i 34 -a 1 -x {0.0 6.0 -1 ------- null}
r -t 1.29548 -s 0 -d 1 -p tcp -e 1040 -c 1 -i 32 -a 1 -x {0.0 6.0 17 ------- null}
h -t 1.29548 -s 1 -d 7 -p tcp -e 1040 -c 1 -i 32 -a 1 -x {0.0 6.0 17 ------- null}
r -t 1.30012 -s 7 -d 1 -p ack -e 40 -c 1 -i 28 -a 1 -x {6.0 0.0 13 ------- null}
+ -t 1.30012 -s 1 -d 0 -p ack -e 40 -c 1 -i 28 -a 1 -x {6.0 0.0 13 ------- null}
- -t 1.30012 -s 1 -d 0 -p ack -e 40 -c 1 -i 28 -a 1 -x {6.0 0.0 13 ------- null}
h -t 1.30012 -s 1 -d 0 -p ack -e 40 -c 1 -i 28 -a 1 -x {6.0 0.0 -1 ------- null}
r -t 1.30212 -s 1 -d 0 -p ack -e 40 -c 1 -i 27 -a 1 -x {6.0 0.0 12 ------- null}
+ -t 1.30212 -s 0 -d 1 -p tcp -e 1040 -c 1 -i 40 -a 1 -x {0.0 6.0 25 ------- null}
+ -t 1.30212 -s 0 -d 1 -p tcp -e 1040 -c 1 -i 41 -a 1 -x {0.0 6.0 26 ------- null}
- -t 1.30212 -s 0 -d 1 -p tcp -e 1040 -c 1 -i 35 -a 1 -x {0.0 6.0 20 ------- null}
h -t 1.30212 -s 0 -d 1 -p tcp -e 1040 -c 1 -i 35 -a 1 -x {0.0 6.0 -1 ------- null}
r -t 1.3038 -s 0 -d 1 -p tcp -e 1040 -c 1 -i 33 -a 1 -x {0.0 6.0 18 ------- null}
h -t 1.3038 -s 1 -d 7 -p tcp -e 1040 -c 1 -i 33 -a 1 -x {0.0 6.0 18 ------- null}
r -t 1.30844 -s 7 -d 1 -p ack -e 40 -c 1 -i 29 -a 1 -x {6.0 0.0 14 ------- null}
+ -t 1.30844 -s 1 -d 0 -p ack -e 40 -c 1 -i 29 -a 1 -x {6.0 0.0 14 ------- null}
- -t 1.30844 -s 1 -d 0 -p ack -e 40 -c 1 -i 29 -a 1 -x {6.0 0.0 14 ------- null}
h -t 1.30844 -s 1 -d 0 -p ack -e 40 -c 1 -i 29 -a 1 -x {6.0 0.0 -1 ------- null}
r -t 1.31044 -s 1 -d 0 -p ack -e 40 -c 1 -i 28 -a 1 -x {6.0 0.0 13 ------- null}
+ -t 1.31044 -s 0 -d 1 -p tcp -e 1040 -c 1 -i 42 -a 1 -x {0.0 6.0 27 ------- null}
+ -t 1.31044 -s 0 -d 1 -p tcp -e 1040 -c 1 -i 43 -a 1 -x {0.0 6.0 28 ------- null}
- -t 1.31044 -s 0 -d 1 -p tcp -e 1040 -c 1 -i 36 -a 1 -x {0.0 6.0 21 ------- null}
h -t 1.31044 -s 0 -d 1 -p tcp -e 1040 -c 1 -i 36 -a 1 -x {0.0 6.0 -1 ------- null}
r -t 1.31212 -s 0 -d 1 -p tcp -e 1040 -c 1 -i 34 -a 1 -x {0.0 6.0 19 ------- null}
h -t 1.31212 -s 1 -d 7 -p tcp -e 1040 -c 1 -i 34 -a 1 -x {0.0 6.0 19 ------- null}
r -t 1.31876 -s 1 -d 0 -p ack -e 40 -c 1 -i 29 -a 1 -x {6.0 0.0 14 ------- null}
+ -t 1.31876 -s 0 -d 1 -p tcp -e 1040 -c 1 -i 44 -a 1 -x {0.0 6.0 29 ------- null}
+ -t 1.31876 -s 0 -d 1 -p tcp -e 1040 -c 1 -i 45 -a 1 -x {0.0 6.0 30 ------- null}
- -t 1.31876 -s 0 -d 1 -p tcp -e 1040 -c 1 -i 37 -a 1 -x {0.0 6.0 22 ------- null}
h -t 1.31876 -s 0 -d 1 -p tcp -e 1040 -c 1 -i 37 -a 1 -x {0.0 6.0 -1 ------- null}
+ -t 1.31884 -s 1 -d 7 -p tcp -e 1040 -c 1 -i 30 -a 1 -x {0.0 6.0 15 ------- null}
- -t 1.31884 -s 1 -d 7 -p tcp -e 1040 -c 1 -i 30 -a 1 -x {0.0 6.0 15 ------- null}
h -t 1.31884 -s 1 -d 7 -p tcp -e 1040 -c 1 -i 30 -a 1 -x {0.0 6.0 -1 ------- null}
r -t 1.32044 -s 0 -d 1 -p tcp -e 1040 -c 1 -i 35 -a 1 -x {0.0 6.0 20 ------- null}
h -t 1.32044 -s 1 -d 7 -p tcp -e 1040 -c 1 -i 35 -a 1 -x {0.0 6.0 20 ------- null}
- -t 1.32708 -s 0 -d 1 -p tcp -e 1040 -c 1 -i 38 -a 1 -x {0.0 6.0 23 ------- null}
h -t 1.32708 -s 0 -d 1 -p tcp -e 1040 -c 1 -i 38 -a 1 -x {0.0 6.0 -1 ------- null}
+ -t 1.32716 -s 1 -d 7 -p tcp -e 1040 -c 1 -i 31 -a 1 -x {0.0 6.0 16 ------- null}
- -t 1.32716 -s 1 -d 7 -p tcp -e 1040 -c 1 -i 31 -a 1 -x {0.0 6.0 16 ------- null}
h -t 1.32716 -s 1 -d 7 -p tcp -e 1040 -c 1 -i 31 -a 1 -x {0.0 6.0 -1 ------- null}
r -t 1.32876 -s 0 -d 1 -p tcp -e 1040 -c 1 -i 36 -a 1 -x {0.0 6.0 21 ------- null}
h -t 1.32876 -s 1 -d 7 -p tcp -e 1040 -c 1 -i 36 -a 1 -x {0.0 6.0 21 ------- null}
- -t 1.3354 -s 0 -d 1 -p tcp -e 1040 -c 1 -i 39 -a 1 -x {0.0 6.0 24 ------- null}
h -t 1.3354 -s 0 -d 1 -p tcp -e 1040 -c 1 -i 39 -a 1 -x {0.0 6.0 -1 ------- null}
+ -t 1.33548 -s 1 -d 7 -p tcp -e 1040 -c 1 -i 32 -a 1 -x {0.0 6.0 17 ------- null}
- -t 1.33548 -s 1 -d 7 -p tcp -e 1040 -c 1 -i 32 -a 1 -x {0.0 6.0 17 ------- null}
h -t 1.33548 -s 1 -d 7 -p tcp -e 1040 -c 1 -i 32 -a 1 -x {0.0 6.0 -1 ------- null}
r -t 1.33708 -s 0 -d 1 -p tcp -e 1040 -c 1 -i 37 -a 1 -x {0.0 6.0 22 ------- null}
h -t 1.33708 -s 1 -d 7 -p tcp -e 1040 -c 1 -i 37 -a 1 -x {0.0 6.0 22 ------- null}
- -t 1.34372 -s 0 -d 1 -p tcp -e 1040 -c 1 -i 40 -a 1 -x {0.0 6.0 25 ------- null}
h -t 1.34372 -s 0 -d 1 -p tcp -e 1040 -c 1 -i 40 -a 1 -x {0.0 6.0 -1 ------- null}
+ -t 1.3438 -s 1 -d 7 -p tcp -e 1040 -c 1 -i 33 -a 1 -x {0.0 6.0 18 ------- null}
- -t 1.3438 -s 1 -d 7 -p tcp -e 1040 -c 1 -i 33 -a 1 -x {0.0 6.0 18 ------- null}
h -t 1.3438 -s 1 -d 7 -p tcp -e 1040 -c 1 -i 33 -a 1 -x {0.0 6.0 -1 ------- null}
r -t 1.3454 -s 0 -d 1 -p tcp -e 1040 -c 1 -i 38 -a 1 -x {0.0 6.0 23 ------- null}
h -t 1.3454 -s 1 -d 7 -p tcp -e 1040 -c 1 -i 38 -a 1 -x {0.0 6.0 23 ------- null}
- -t 1.35204 -s 0 -d 1 -p tcp -e 1040 -c 1 -i 41 -a 1 -x {0.0 6.0 26 ------- null}
h -t 1.35204 -s 0 -d 1 -p tcp -e 1040 -c 1 -i 41 -a 1 -x {0.0 6.0 -1 ------- null}
+ -t 1.35212 -s 1 -d 7 -p tcp -e 1040 -c 1 -i 34 -a 1 -x {0.0 6.0 19 ------- null}
- -t 1.35212 -s 1 -d 7 -p tcp -e 1040 -c 1 -i 34 -a 1 -x {0.0 6.0 19 ------- null}
h -t 1.35212 -s 1 -d 7 -p tcp -e 1040 -c 1 -i 34 -a 1 -x {0.0 6.0 -1 ------- null}
r -t 1.35372 -s 0 -d 1 -p tcp -e 1040 -c 1 -i 39 -a 1 -x {0.0 6.0 24 ------- null}
h -t 1.35372 -s 1 -d 7 -p tcp -e 1040 -c 1 -i 39 -a 1 -x {0.0 6.0 24 ------- null}
- -t 1.36036 -s 0 -d 1 -p tcp -e 1040 -c 1 -i 42 -a 1 -x {0.0 6.0 27 ------- null}
h -t 1.36036 -s 0 -d 1 -p tcp -e 1040 -c 1 -i 42 -a 1 -x {0.0 6.0 -1 ------- null}
+ -t 1.36044 -s 1 -d 7 -p tcp -e 1040 -c 1 -i 35 -a 1 -x {0.0 6.0 20 ------- null}
- -t 1.36044 -s 1 -d 7 -p tcp -e 1040 -c 1 -i 35 -a 1 -x {0.0 6.0 20 ------- null}
h -t 1.36044 -s 1 -d 7 -p tcp -e 1040 -c 1 -i 35 -a 1 -x {0.0 6.0 -1 ------- null}
r -t 1.36204 -s 0 -d 1 -p tcp -e 1040 -c 1 -i 40 -a 1 -x {0.0 6.0 25 ------- null}
h -t 1.36204 -s 1 -d 7 -p tcp -e 1040 -c 1 -i 40 -a 1 -x {0.0 6.0 25 ------- null}
r -t 1.36306 -s 7 -d 6 -p tcp -e 1040 -c 1 -i 30 -a 1 -x {0.0 6.0 15 ------- null}
h -t 1.36306 -s 6 -d 7 -p ack -e 40 -c 1 -i 46 -a 1 -x {6.0 0.0 15 ------- null}
- -t 1.36868 -s 0 -d 1 -p tcp -e 1040 -c 1 -i 43 -a 1 -x {0.0 6.0 28 ------- null}
h -t 1.36868 -s 0 -d 1 -p tcp -e 1040 -c 1 -i 43 -a 1 -x {0.0 6.0 -1 ------- null}
+ -t 1.36876 -s 1 -d 7 -p tcp -e 1040 -c 1 -i 36 -a 1 -x {0.0 6.0 21 ------- null}
- -t 1.36876 -s 1 -d 7 -p tcp -e 1040 -c 1 -i 36 -a 1 -x {0.0 6.0 21 ------- null}
h -t 1.36876 -s 1 -d 7 -p tcp -e 1040 -c 1 -i 36 -a 1 -x {0.0 6.0 -1 ------- null}
r -t 1.37036 -s 0 -d 1 -p tcp -e 1040 -c 1 -i 41 -a 1 -x {0.0 6.0 26 ------- null}