+ 0.1 1 0 ping 64 ------- 0 1.0 2.0 -1 0
- 0.1 1 0 ping 64 ------- 0 1.0 2.0 -1 0
r 0.110512 1 0 ping 64 ------- 0 1.0 2.0 -1 0
+ 0.110512 0 2 ping 64 ------- 0 1.0 2.0 -1 0
d 0.110512 0 2 ping 64 ------- 0 1.0 2.0 -1 0
+ 0.3 2 0 ping 64 ------- 0 2.0 1.0 -1 1
- 0.3 2 0 ping 64 ------- 0 2.0 1.0 -1 1
r 0.310512 2 0 ping 64 ------- 0 2.0 1.0 -1 1
+ 0.310512 0 1 ping 64 ------- 0 2.0 1.0 -1 1
- 0.310512 0 1 ping 64 ------- 0 2.0 1.0 -1 1
r 0.321024 0 1 ping 64 ------- 0 2.0 1.0 -1 1
+ 0.321024 1 0 ping 64 ------- 0 1.0 2.0 -1 2
- 0.321024 1 0 ping 64 ------- 0 1.0 2.0 -1 2
r 0.331536 1 0 ping 64 ------- 0 1.0 2.0 -1 2
+ 0.331536 0 2 ping 64 ------- 0 1.0 2.0 -1 2
d 0.331536 0 2 ping 64 ------- 0 1.0 2.0 -1 2
+ 0.5 3 0 ping 64 ------- 0 3.0 4.0 -1 3
- 0.5 3 0 ping 64 ------- 0 3.0 4.0 -1 3
r 0.510512 3 0 ping 64 ------- 0 3.0 4.0 -1 3
+ 0.510512 0 4 ping 64 ------- 0 3.0 4.0 -1 3
- 0.510512 0 4 ping 64 ------- 0 3.0 4.0 -1 3
r 0.521024 0 4 ping 64 ------- 0 3.0 4.0 -1 3
+ 0.521024 4 0 ping 64 ------- 0 4.0 3.0 -1 4
- 0.521024 4 0 ping 64 ------- 0 4.0 3.0 -1 4
r 0.531536 4 0 ping 64 ------- 0 4.0 3.0 -1 4
+ 0.531536 0 3 ping 64 ------- 0 4.0 3.0 -1 4
- 0.531536 0 3 ping 64 ------- 0 4.0 3.0 -1 4
r 0.542048 0 3 ping 64 ------- 0 4.0 3.0 -1 4
+ 0.7 4 0 ping 64 ------- 0 4.0 3.0 -1 5
- 0.7 4 0 ping 64 ------- 0 4.0 3.0 -1 5
r 0.710512 4 0 ping 64 ------- 0 4.0 3.0 -1 5
+ 0.710512 0 3 ping 64 ------- 0 4.0 3.0 -1 5
- 0.710512 0 3 ping 64 ------- 0 4.0 3.0 -1 5
r 0.721024 0 3 ping 64 ------- 0 4.0 3.0 -1 5
+ 0.721024 3 0 ping 64 ------- 0 3.0 4.0 -1 6
- 0.721024 3 0 ping 64 ------- 0 3.0 4.0 -1 6
r 0.731536 3 0 ping 64 ------- 0 3.0 4.0 -1 6
+ 0.731536 0 4 ping 64 ------- 0 3.0 4.0 -1 6
- 0.731536 0 4 ping 64 ------- 0 3.0 4.0 -1 6
r 0.742048 0 4 ping 64 ------- 0 3.0 4.0 -1 6
+ 0.9 3 0 ping 64 ------- 0 3.0 4.0 -1 7
- 0.9 3 0 ping 64 ------- 0 3.0 4.0 -1 7
r 0.910512 3 0 ping 64 ------- 0 3.0 4.0 -1 7
+ 0.910512 0 4 ping 64 ------- 0 3.0 4.0 -1 7
- 0.910512 0 4 ping 64 ------- 0 3.0 4.0 -1 7
r 0.921024 0 4 ping 64 ------- 0 3.0 4.0 -1 7
+ 0.921024 4 0 ping 64 ------- 0 4.0 3.0 -1 8
- 0.921024 4 0 ping 64 ------- 0 4.0 3.0 -1 8
r 0.931536 4 0 ping 64 ------- 0 4.0 3.0 -1 8
+ 0.931536 0 3 ping 64 ------- 0 4.0 3.0 -1 8
- 0.931536 0 3 ping 64 ------- 0 4.0 3.0 -1 8
r 0.942048 0 3 ping 64 ------- 0 4.0 3.0 -1 8
